[Molden Format]
[Atoms] AU
  N     1    7    -4.4600047100    0.1858963200    0.0027413300        
  C     2    6    -1.7684072500   -0.0183656700   -0.0028883300        
  C     3    6    -0.4264365900   -0.0071490900   -2.2708993700        
  C     4    6    -0.4286225300   -0.0107422100    2.2670508900        
  C     5    6     2.1897134900   -0.0005296400   -2.2574103600        
  C     6    6     2.1879618100   -0.0011198300    2.2566411500        
  C     7    6     3.5140782700    0.0035359700    0.0004422700        
  H     8    1    -5.2119501600   -0.8329656500   -1.6457388400        
  H     9    1    -5.1800625800   -0.7415191200    1.5439697600        
  H    10    1    -1.4298895800    0.0003729400   -4.0332824900        
  H    11    1    -1.4330364000   -0.0108616500    4.0290946300        
  H    12    1     3.1934343300   -0.0001333600   -4.0210096900        
  H    13    1     3.1897915100   -0.0021254300    4.0213157200        
  H    14    1     5.5420069000    0.0076531000    0.0012757300        
[5D]
[7F]
[GTO]
  1  0
   s    12 1.00
  0.114200D+05  0.172695D-04
  0.171200D+04  0.134411D-03
  0.389300D+03  0.694561D-03
  0.110000D+03  0.278531D-02
  0.355700D+02  0.863457D-02
  0.125400D+02  0.199805D-01
  0.464400D+01  0.262908D-01
  0.129300D+01 -0.243845D-01
  0.511800D+00 -0.924934D-01
  0.178700D+00 -0.339683D+00
  0.246240D-01  0.345111D+00
  0.112530D-01  0.752750D+00
   s    10 1.00
  0.114200D+05  0.523000D-03
  0.171200D+04  0.404500D-02
  0.389300D+03  0.207750D-01
  0.110000D+03  0.807269D-01
  0.355700D+02  0.233074D+00
  0.125400D+02  0.433501D+00
  0.464400D+01  0.347472D+00
  0.129300D+01  0.412620D-01
  0.511800D+00 -0.850799D-02
  0.178700D+00  0.238400D-02
   s    10 1.00
  0.114200D+05 -0.115000D-03
  0.171200D+04 -0.895000D-03
  0.389300D+03 -0.462400D-02
  0.110000D+03 -0.185280D-01
  0.355700D+02 -0.573390D-01
  0.125400D+02 -0.132076D+00
  0.464400D+01 -0.172510D+00
  0.129300D+01  0.151814D+00
  0.511800D+00  0.599944D+00
  0.178700D+00  0.387462D+00
   s     1 1.00
  0.129300D+01  0.100000D+01
   s     1 1.00
  0.178700D+00  0.100000D+01
   p     5 1.00
  0.266300D+02  0.146700D-01
  0.594800D+01  0.917640D-01
  0.174200D+01  0.298683D+00
  0.555000D+00  0.498487D+00
  0.172500D+00  0.337023D+00
   p     1 1.00
  0.174200D+01  0.100000D+01
   p     1 1.00
  0.555000D+00  0.100000D+01
   d     1 1.00
  0.165400D+01  0.100000D+01
   d     1 1.00
  0.469000D+00  0.100000D+01
   f     1 1.00
  0.109300D+01  0.100000D+01
  
  2  0
   s    10 1.00
  0.823600D+04  0.531000D-03
  0.123500D+04  0.410800D-02
  0.280800D+03  0.210870D-01
  0.792700D+02  0.818530D-01
  0.255900D+02  0.234817D+00
  0.899700D+01  0.434401D+00
  0.331900D+01  0.346129D+00
  0.905900D+00  0.393780D-01
  0.364300D+00 -0.898300D-02
  0.128500D+00  0.238500D-02
   s    10 1.00
  0.823600D+04 -0.113000D-03
  0.123500D+04 -0.878000D-03
  0.280800D+03 -0.454000D-02
  0.792700D+02 -0.181330D-01
  0.255900D+02 -0.557600D-01
  0.899700D+01 -0.126895D+00
  0.331900D+01 -0.170352D+00
  0.905900D+00  0.140382D+00
  0.364300D+00  0.598684D+00
  0.128500D+00  0.395389D+00
   s     1 1.00
  0.905900D+00  0.100000D+01
   s     1 1.00
  0.364300D+00  0.100000D+01
   p     5 1.00
  0.187100D+02  0.140310D-01
  0.413300D+01  0.868660D-01
  0.120000D+01  0.290216D+00
  0.382700D+00  0.501008D+00
  0.120900D+00  0.343406D+00
   p     1 1.00
  0.382700D+00  0.100000D+01
   p     1 1.00
  0.120900D+00  0.100000D+01
   d     1 1.00
  0.109700D+01  0.100000D+01
   d     1 1.00
  0.318000D+00  0.100000D+01
   f     1 1.00
  0.761000D+00  0.100000D+01
  
  3  0
   s    10 1.00
  0.823600D+04  0.531000D-03
  0.123500D+04  0.410800D-02
  0.280800D+03  0.210870D-01
  0.792700D+02  0.818530D-01
  0.255900D+02  0.234817D+00
  0.899700D+01  0.434401D+00
  0.331900D+01  0.346129D+00
  0.905900D+00  0.393780D-01
  0.364300D+00 -0.898300D-02
  0.128500D+00  0.238500D-02
   s    10 1.00
  0.823600D+04 -0.113000D-03
  0.123500D+04 -0.878000D-03
  0.280800D+03 -0.454000D-02
  0.792700D+02 -0.181330D-01
  0.255900D+02 -0.557600D-01
  0.899700D+01 -0.126895D+00
  0.331900D+01 -0.170352D+00
  0.905900D+00  0.140382D+00
  0.364300D+00  0.598684D+00
  0.128500D+00  0.395389D+00
   s     1 1.00
  0.905900D+00  0.100000D+01
   s     1 1.00
  0.364300D+00  0.100000D+01
   p     5 1.00
  0.187100D+02  0.140310D-01
  0.413300D+01  0.868660D-01
  0.120000D+01  0.290216D+00
  0.382700D+00  0.501008D+00
  0.120900D+00  0.343406D+00
   p     1 1.00
  0.382700D+00  0.100000D+01
   p     1 1.00
  0.120900D+00  0.100000D+01
   d     1 1.00
  0.109700D+01  0.100000D+01
   d     1 1.00
  0.318000D+00  0.100000D+01
   f     1 1.00
  0.761000D+00  0.100000D+01
  
  4  0
   s    10 1.00
  0.823600D+04  0.531000D-03
  0.123500D+04  0.410800D-02
  0.280800D+03  0.210870D-01
  0.792700D+02  0.818530D-01
  0.255900D+02  0.234817D+00
  0.899700D+01  0.434401D+00
  0.331900D+01  0.346129D+00
  0.905900D+00  0.393780D-01
  0.364300D+00 -0.898300D-02
  0.128500D+00  0.238500D-02
   s    10 1.00
  0.823600D+04 -0.113000D-03
  0.123500D+04 -0.878000D-03
  0.280800D+03 -0.454000D-02
  0.792700D+02 -0.181330D-01
  0.255900D+02 -0.557600D-01
  0.899700D+01 -0.126895D+00
  0.331900D+01 -0.170352D+00
  0.905900D+00  0.140382D+00
  0.364300D+00  0.598684D+00
  0.128500D+00  0.395389D+00
   s     1 1.00
  0.905900D+00  0.100000D+01
   s     1 1.00
  0.364300D+00  0.100000D+01
   p     5 1.00
  0.187100D+02  0.140310D-01
  0.413300D+01  0.868660D-01
  0.120000D+01  0.290216D+00
  0.382700D+00  0.501008D+00
  0.120900D+00  0.343406D+00
   p     1 1.00
  0.382700D+00  0.100000D+01
   p     1 1.00
  0.120900D+00  0.100000D+01
   d     1 1.00
  0.109700D+01  0.100000D+01
   d     1 1.00
  0.318000D+00  0.100000D+01
   f     1 1.00
  0.761000D+00  0.100000D+01
  
  5  0
   s    10 1.00
  0.823600D+04  0.531000D-03
  0.123500D+04  0.410800D-02
  0.280800D+03  0.210870D-01
  0.792700D+02  0.818530D-01
  0.255900D+02  0.234817D+00
  0.899700D+01  0.434401D+00
  0.331900D+01  0.346129D+00
  0.905900D+00  0.393780D-01
  0.364300D+00 -0.898300D-02
  0.128500D+00  0.238500D-02
   s    10 1.00
  0.823600D+04 -0.113000D-03
  0.123500D+04 -0.878000D-03
  0.280800D+03 -0.454000D-02
  0.792700D+02 -0.181330D-01
  0.255900D+02 -0.557600D-01
  0.899700D+01 -0.126895D+00
  0.331900D+01 -0.170352D+00
  0.905900D+00  0.140382D+00
  0.364300D+00  0.598684D+00
  0.128500D+00  0.395389D+00
   s     1 1.00
  0.905900D+00  0.100000D+01
   s     1 1.00
  0.364300D+00  0.100000D+01
   p     5 1.00
  0.187100D+02  0.140310D-01
  0.413300D+01  0.868660D-01
  0.120000D+01  0.290216D+00
  0.382700D+00  0.501008D+00
  0.120900D+00  0.343406D+00
   p     1 1.00
  0.382700D+00  0.100000D+01
   p     1 1.00
  0.120900D+00  0.100000D+01
   d     1 1.00
  0.109700D+01  0.100000D+01
   d     1 1.00
  0.318000D+00  0.100000D+01
   f     1 1.00
  0.761000D+00  0.100000D+01
  
  6  0
   s    10 1.00
  0.823600D+04  0.531000D-03
  0.123500D+04  0.410800D-02
  0.280800D+03  0.210870D-01
  0.792700D+02  0.818530D-01
  0.255900D+02  0.234817D+00
  0.899700D+01  0.434401D+00
  0.331900D+01  0.346129D+00
  0.905900D+00  0.393780D-01
  0.364300D+00 -0.898300D-02
  0.128500D+00  0.238500D-02
   s    10 1.00
  0.823600D+04 -0.113000D-03
  0.123500D+04 -0.878000D-03
  0.280800D+03 -0.454000D-02
  0.792700D+02 -0.181330D-01
  0.255900D+02 -0.557600D-01
  0.899700D+01 -0.126895D+00
  0.331900D+01 -0.170352D+00
  0.905900D+00  0.140382D+00
  0.364300D+00  0.598684D+00
  0.128500D+00  0.395389D+00
   s     1 1.00
  0.905900D+00  0.100000D+01
   s     1 1.00
  0.364300D+00  0.100000D+01
   p     5 1.00
  0.187100D+02  0.140310D-01
  0.413300D+01  0.868660D-01
  0.120000D+01  0.290216D+00
  0.382700D+00  0.501008D+00
  0.120900D+00  0.343406D+00
   p     1 1.00
  0.382700D+00  0.100000D+01
   p     1 1.00
  0.120900D+00  0.100000D+01
   d     1 1.00
  0.109700D+01  0.100000D+01
   d     1 1.00
  0.318000D+00  0.100000D+01
   f     1 1.00
  0.761000D+00  0.100000D+01
  
  7  0
   s    10 1.00
  0.823600D+04  0.531000D-03
  0.123500D+04  0.410800D-02
  0.280800D+03  0.210870D-01
  0.792700D+02  0.818530D-01
  0.255900D+02  0.234817D+00
  0.899700D+01  0.434401D+00
  0.331900D+01  0.346129D+00
  0.905900D+00  0.393780D-01
  0.364300D+00 -0.898300D-02
  0.128500D+00  0.238500D-02
   s    10 1.00
  0.823600D+04 -0.113000D-03
  0.123500D+04 -0.878000D-03
  0.280800D+03 -0.454000D-02
  0.792700D+02 -0.181330D-01
  0.255900D+02 -0.557600D-01
  0.899700D+01 -0.126895D+00
  0.331900D+01 -0.170352D+00
  0.905900D+00  0.140382D+00
  0.364300D+00  0.598684D+00
  0.128500D+00  0.395389D+00
   s     1 1.00
  0.905900D+00  0.100000D+01
   s     1 1.00
  0.364300D+00  0.100000D+01
   p     5 1.00
  0.187100D+02  0.140310D-01
  0.413300D+01  0.868660D-01
  0.120000D+01  0.290216D+00
  0.382700D+00  0.501008D+00
  0.120900D+00  0.343406D+00
   p     1 1.00
  0.382700D+00  0.100000D+01
   p     1 1.00
  0.120900D+00  0.100000D+01
   d     1 1.00
  0.109700D+01  0.100000D+01
   d     1 1.00
  0.318000D+00  0.100000D+01
   f     1 1.00
  0.761000D+00  0.100000D+01
  
  8  0
   s     4 1.00
  0.130100D+02  0.196850D-01
  0.196200D+01  0.137977D+00
  0.444600D+00  0.478148D+00
  0.122000D+00  0.501240D+00
   s     1 1.00
  0.122000D+00  0.100000D+01
   p     1 1.00
  0.727000D+00  0.100000D+01
  
  9  0
   s     4 1.00
  0.130100D+02  0.196850D-01
  0.196200D+01  0.137977D+00
  0.444600D+00  0.478148D+00
  0.122000D+00  0.501240D+00
   s     1 1.00
  0.122000D+00  0.100000D+01
   p     1 1.00
  0.727000D+00  0.100000D+01
  
 10  0
   s     4 1.00
  0.130100D+02  0.196850D-01
  0.196200D+01  0.137977D+00
  0.444600D+00  0.478148D+00
  0.122000D+00  0.501240D+00
   s     1 1.00
  0.122000D+00  0.100000D+01
   p     1 1.00
  0.727000D+00  0.100000D+01
  
 11  0
   s     4 1.00
  0.130100D+02  0.196850D-01
  0.196200D+01  0.137977D+00
  0.444600D+00  0.478148D+00
  0.122000D+00  0.501240D+00
   s     1 1.00
  0.122000D+00  0.100000D+01
   p     1 1.00
  0.727000D+00  0.100000D+01
  
 12  0
   s     4 1.00
  0.130100D+02  0.196850D-01
  0.196200D+01  0.137977D+00
  0.444600D+00  0.478148D+00
  0.122000D+00  0.501240D+00
   s     1 1.00
  0.122000D+00  0.100000D+01
   p     1 1.00
  0.727000D+00  0.100000D+01
  
 13  0
   s     4 1.00
  0.130100D+02  0.196850D-01
  0.196200D+01  0.137977D+00
  0.444600D+00  0.478148D+00
  0.122000D+00  0.501240D+00
   s     1 1.00
  0.122000D+00  0.100000D+01
   p     1 1.00
  0.727000D+00  0.100000D+01
  
 14  0
   s     4 1.00
  0.130100D+02  0.196850D-01
  0.196200D+01  0.137977D+00
  0.444600D+00  0.478148D+00
  0.122000D+00  0.501240D+00
   s     1 1.00
  0.122000D+00  0.100000D+01
   p     1 1.00
  0.727000D+00  0.100000D+01
  
[MO]
 Sym= __1_a__
 Ene=  0.000000000000000E+000
 Spin= Alpha
 Occup=    2.00000000000000     
                     1  2.261911100780830E-004
                     2  0.998194664635109     
                     3  2.877598073779620E-003
                     4  1.784660683496730E-003
                     5  5.896216953100680E-003
                     6  5.732731656514580E-003
                     7 -5.212856782344150E-003
                     8  1.295957386717840E-004
                     9 -8.233407538342010E-004
                    10  3.502863849647430E-004
                    11  1.549624720671540E-005
                    12 -1.541156607130170E-003
                    13  3.365939907765560E-003
                    14 -6.149914646844480E-005
                    15 -3.036705203362952E-005
                    16 -2.207629719781920E-005
                    17 -3.335800637675170E-005
                    18  7.091590357314920E-005
                    19  4.684423238336350E-005
                    20 -3.829471280217059E-004
                    21  5.789215523660420E-007
                    22 -2.118939579481980E-005
                    23  6.102324872792580E-005
                    24 -5.081846476825780E-004
                    25 -2.180765639997537E-006
                    26 -1.213902610137215E-004
                    27 -4.529968700181997E-005
                    28 -1.046630571704916E-005
                    29  1.866717954922000E-005
                    30 -8.805828599603906E-005
                    31 -5.919450865822623E-005
                    32 -3.934953149730420E-004
                    33  7.642026097789580E-004
                    34  2.593257576214880E-004
                    35 -1.148948129496300E-004
                    36 -4.098065506932450E-003
                    37 -6.474616020146820E-005
                    38 -1.904616720809900E-005
                    39  2.023688029600380E-004
                    40 -9.213434387839529E-006
                    41  2.336775666189900E-005
                    42  4.933807743527070E-003
                    43  7.832666508690220E-004
                    44 -8.541693785970669E-005
                    45 -2.158754209508970E-004
                    46 -4.287023737916970E-006
                    47 -3.202150826044580E-007
                    48  2.001785693491720E-004
                    49  4.792782969682640E-005
                    50  5.065289461184628E-004
                    51  2.226156558106800E-005
                    52  6.042873203538010E-006
                    53 -9.909883870138240E-005
                    54 -3.677982238277790E-004
                    55  2.464696827434967E-006
                    56 -5.442156275192302E-005
                    57  9.815034008008186E-006
                    58  4.406347241965960E-006
                    59 -1.622406337645490E-007
                    60 -3.464604934243206E-005
                    61  3.728734387801830E-005
                    62 -3.761101243254770E-004
                    63 -1.780786481146280E-003
                    64  1.019508220640170E-004
                    65  8.782347117635780E-004
                    66  5.014241584652680E-004
                    67 -1.214740584366500E-004
                    68 -5.513924307845560E-004
                    69  6.087167840833050E-004
                    70  9.322740431394060E-005
                    71  1.379116397129730E-004
                    72 -4.213797141995520E-004
                    73 -3.554163741367720E-004
                    74 -8.866224931099490E-004
                    75 -7.201894664993937E-005
                    76 -1.407847845175320E-005
                    77  1.773409896529400E-005
                    78  6.277544231645100E-005
                    79 -1.017345370251520E-005
                    80  2.081636234438657E-004
                    81  1.913491697271060E-004
                    82 -2.545302281351280E-005
                    83 -1.379161014471268E-004
                    84  5.782333217481340E-005
                    85 -1.151650596852620E-005
                    86 -5.479983282931570E-005
                    87  2.172060892678339E-005
                    88 -1.031434905545632E-005
                    89  1.314488398678510E-005
                    90 -4.511415379785215E-005
                    91 -1.178104683282492E-005
                    92 -3.714084660288090E-004
                    93 -1.787319121627270E-003
                    94  1.112366357125670E-004
                    95  8.178295166310551E-004
                    96  5.225932343067870E-004
                    97 -1.180730881794370E-004
                    98  5.624961876247380E-004
                    99  6.123742041994400E-004
                   100  8.786324399289540E-005
                   101 -1.032665007451160E-004
                   102 -5.651175966621960E-004
                   103 -3.604683652625950E-004
                   104  8.100469597159180E-004
                   105 -7.437974197198248E-005
                   106  1.168035030854500E-005
                   107 -1.756826035987000E-005
                   108  6.164954596571740E-005
                   109 -1.044785212300690E-005
                   110  1.931322383905964E-004
                   111 -1.861261407757750E-004
                   112  2.826912472951720E-005
                   113 -1.335317928915692E-004
                   114  6.394654358507080E-005
                   115  9.825826826426084E-006
                   116 -5.280907793348166E-005
                   117  2.121489735274911E-005
                   118  9.844280760978981E-006
                   119 -1.431108783685490E-005
                   120 -4.404342994826576E-005
                   121 -1.168006110694468E-005
                   122 -1.982312810534450E-004
                   123 -3.677357430422290E-004
                   124  4.785660004228870E-005
                   125  6.101694704029570E-004
                   126 -4.998270503941661E-004
                   127 -4.222540376962760E-005
                   128  2.102950479506550E-005
                   129  2.124052647166070E-004
                   130 -2.933909895330930E-005
                   131  1.338192255661890E-005
                   132  9.320536298427940E-004
                   133  1.641817158055120E-004
                   134 -2.509974601421060E-004
                   135  4.750520180518490E-006
                   136 -5.845062211902280E-007
                   137 -4.406654396120750E-006
                   138  1.331612855613332E-006
                   139  1.013108918921460E-005
                   140  8.007973702306669E-005
                   141  1.989069490390350E-004
                   142  9.613710900642491E-006
                   143 -1.887482767500118E-004
                   144 -1.431214327739370E-005
                   145 -1.239569294048116E-005
                   146 -1.446895550136477E-005
                   147  2.867897384309107E-006
                   148 -4.738895375309500E-006
                   149 -1.535909632974160E-006
                   150 -4.618238402697005E-005
                   151 -2.116313728195589E-006
                   152 -1.942351399346430E-004
                   153 -3.486163972953130E-004
                   154  4.875166833096580E-005
                   155  5.855957096564440E-004
                   156 -5.053622555743560E-004
                   157 -4.212754164846610E-005
                   158 -2.337708798410680E-005
                   159  2.037550568905720E-004
                   160 -3.041240922560090E-005
                   161 -4.587428590000210E-006
                   162  7.995600825201450E-004
                   163  1.632621259863350E-004
                   164  3.188543892154700E-004
                   165  4.214246110778152E-006
                   166  2.165010132244260E-007
                   167  4.493816257398370E-006
                   168  1.353932972926542E-006
                   169  9.958828589620201E-006
                   170  7.140166997191508E-005
                   171 -1.871834273945760E-004
                   172 -1.048459604974460E-005
                   173 -1.833936526407428E-004
                   174 -1.214715661250010E-005
                   175  1.100072195675921E-005
                   176 -1.527928060153158E-005
                   177  2.986378121995725E-006
                   178  4.136046414906440E-006
                   179  1.346948551551150E-006
                   180 -4.510923835605099E-005
                   181 -2.269862391917754E-006
                   182 -1.274152554330530E-004
                   183 -3.943267512490600E-004
                   184  2.705882611877420E-005
                   185  1.593337315236930E-004
                   186 -1.982225191983260E-005
                   187 -4.625388541971550E-005
                   188 -1.750817845297250E-006
                   189  1.013334894582360E-004
                   190  2.155430182430470E-005
                   191  1.123651136150380E-005
                   192 -4.012231676812780E-004
                   193 -1.127233003079990E-004
                   194  7.463730718079620E-005
                   195 -8.687021657983458E-006
                   196 -2.187248112467340E-007
                   197 -1.225273250720880E-009
                   198  3.227875667454120E-006
                   199 -2.142675930340190E-006
                   200 -1.164963654583205E-004
                   201 -8.028045465297080E-006
                   202 -6.702903328792871E-007
                   203  6.462229905449299E-005
                   204  1.787024082609710E-005
                   205  2.102893618503420E-007
                   206  1.783165368753296E-006
                   207  3.104107008120372E-006
                   208  7.083380460134820E-007
                   209  8.142217873323060E-008
                   210 -5.708616790899555E-006
                   211 -2.840529705276098E-006
                   212  2.058491037380790E-003
                   213 -1.730383052525900E-003
                   214  1.684057598635950E-004
                   215  3.134066558406910E-004
                   216  3.447298046404820E-004
                   217  2.424949095015850E-003
                   218 -2.070410714449560E-003
                   219  1.698569354694790E-004
                   220  3.088174695952710E-004
                   221 -3.401147953087950E-004
                   222 -4.599339260802710E-004
                   223 -3.646364284948800E-004
                   224 -6.335878073910399E-005
                   225  1.071494631722270E-005
                   226  4.567427251353800E-005
                   227 -4.617230468456590E-004
                   228 -3.447293067945090E-004
                   229 -6.084932473177880E-005
                   230  1.051083517201030E-005
                   231 -4.582803496969990E-005
                   232 -9.916987395306120E-005
                   233 -4.846930166233900E-004
                   234  5.361366971854320E-006
                   235 -1.711155946337330E-006
                   236 -9.593315159438621E-006
                   237 -1.041381213587300E-004
                   238 -4.794271650225070E-004
                   239  5.169229173823380E-006
                   240 -1.584319229009620E-006
                   241  9.211443398315640E-006
                   242  5.857014267525020E-006
                   243  1.325381573498190E-004
                   244  3.153840813091010E-005
                   245  2.106593406989300E-006
                   246 -2.688671076193620E-007
 Sym= __2_a__
 Ene=  0.000000000000000E+000
 Spin= Alpha
 Occup=    2.00000000000000     
                     1 -2.014731005395540E-005
                     2 -8.557774017705001E-005
                     3  2.080574398369660E-003
                     4 -1.685581022490900E-005
                     5  1.219270450907640E-003
                     6  1.893210771790690E-003
                     7  2.598968658442300E-004
                     8 -3.162361843192760E-005
                     9 -1.486921463100560E-004
                    10  1.097345352096770E-004
                    11 -3.587189479616550E-006
                    12  5.719543830852600E-005
                    13  5.289140150598310E-005
                    14 -5.308271929014210E-008
                    15 -7.119728409493260E-005
                    16 -7.732253652241620E-007
                    17 -1.941317949205330E-007
                    18  4.256823074515260E-005
                    19 -4.256387989645860E-006
                    20  1.579897074148769E-004
                    21  1.454305589378010E-005
                    22  7.096883633272070E-006
                    23  1.084272548792880E-004
                    24 -3.571598694255420E-005
                    25 -1.542557237632838E-006
                    26  1.386240387637563E-004
                    27 -5.664429707313218E-005
                    28  1.141974505257200E-006
                    29 -3.282931958946570E-006
                    30  1.227459232051615E-004
                    31  3.797419517156746E-005
                    32   1.00096168063575     
                    33  8.751475399046631E-003
                    34  2.784092524861170E-003
                    35 -8.240519535893940E-003
                    36 -2.536912776730580E-003
                    37  7.239390005614330E-004
                    38 -1.381426473713200E-007
                    39  1.071518527095980E-003
                    40 -2.347678140766480E-004
                    41  1.164276365482880E-005
                    42  3.408368929418100E-003
                    43 -1.304562656862340E-004
                    44  1.045548035275020E-005
                    45  2.990902909475485E-004
                    46 -2.934165208200420E-006
                    47  7.937111055207890E-008
                    48  4.094076973966280E-004
                    49 -2.852207593878320E-005
                    50 -1.041266409927626E-003
                    51  2.805771168318100E-005
                    52 -1.358271458129530E-006
                    53 -1.119682955696600E-004
                    54  4.368465061524170E-005
                    55  7.542302994969036E-007
                    56  3.054001908576437E-004
                    57 -8.555003595722621E-006
                    58  9.608337271089920E-007
                    59 -2.137140457961500E-007
                    60  7.948505299691248E-005
                    61  1.981231395494840E-005
                    62  1.275332050430410E-002
                    63 -1.852052276479330E-003
                    64 -3.162190839904080E-004
                    65  3.166156633757610E-003
                    66 -1.442866859698880E-004
                    67  1.318233993531840E-004
                    68  2.570458669640020E-004
                    69  2.459034055502600E-005
                    70 -1.838132127541800E-006
                    71  5.346994074000710E-004
                    72  1.491833212894640E-004
                    73 -3.576544026619960E-005
                    74 -1.813358662845810E-003
                    75 -9.332375289967415E-006
                    76  2.351151974267940E-005
                    77  9.371127207393709E-006
                    78 -3.496463621835360E-005
                    79 -4.928927072351290E-006
                    80 -4.081985539238140E-004
                    81 -4.697759922783290E-004
                    82 -3.335050033247330E-006
                    83  7.557487534392720E-004
                    84 -1.271808422968640E-006
                    85  4.980687707357474E-005
                    86  1.051516444429673E-004
                    87  2.072774979780943E-007
                    88 -1.801911135881224E-005
                    89 -7.171645379309430E-006
                    90 -3.061490269449460E-005
                    91  5.286902823868292E-006
                    92  1.282011318680100E-002
                    93 -1.847558185537490E-003
                    94 -3.110442237282200E-004
                    95  3.129075348086310E-003
                    96 -1.434418639628780E-004
                    97  1.312629261443470E-004
                    98 -2.589874446535220E-004
                    99  2.914344145992100E-005
                   100  2.515679692004880E-006
                   101 -5.086887483638970E-004
                   102  1.658618561594470E-004
                   103 -3.801764632706940E-005
                   104  1.834628279308820E-003
                   105 -9.537257738289040E-006
                   106 -2.476247948814610E-005
                   107 -9.143461099546231E-006
                   108 -3.595873656573040E-005
                   109 -4.878100204975340E-006
                   110 -4.234288936379917E-004
                   111  4.713793634348260E-004
                   112  1.454199531232320E-006
                   113  7.633199525681340E-004
                   114 -2.953889945256100E-006
                   115 -5.123217212202947E-005
                   116  1.064724223602320E-004
                   117  1.486214622755154E-007
                   118  1.683881353239658E-005
                   119  7.391111932680980E-006
                   120 -2.974701894729583E-005
                   121  5.489742704475629E-006
                   122 -1.384353556206760E-004
                   123 -7.072241945451880E-004
                   124  2.528347600282840E-004
                   125 -3.250424030347640E-004
                   126 -1.928528897779490E-004
                   127  2.480839668660800E-005
                   128 -4.256700015727390E-005
                   129  5.986840134231590E-004
                   130 -7.731332501416630E-007
                   131  3.992664006437970E-005
                   132  5.620534434469930E-004
                   133  4.734404809305260E-006
                   134  3.351981804311570E-004
                   135  1.828387028567655E-007
                   136  4.166528382811870E-005
                   137  1.402380686196030E-007
                   138 -3.450469214589640E-005
                   139 -1.654128452647130E-006
                   140  1.927634948606615E-004
                   141 -2.630660384530160E-004
                   142  2.717520226277390E-006
                   143 -2.652597460220900E-004
                   144 -5.144226857420390E-006
                   145 -1.751078356533105E-005
                   146  1.233135941815332E-005
                   147  1.392971597440129E-007
                   148 -1.237398670061330E-005
                   149 -2.246333126806860E-006
                   150 -2.613549472147937E-005
                   151 -4.172462366998874E-007
                   152 -1.386548098202150E-004
                   153 -7.091281351276610E-004
                   154  2.522027217676600E-004
                   155 -3.277345650573950E-004
                   156 -1.921251695581920E-004
                   157  2.435572997198950E-005
                   158  4.327425109960550E-005
                   159  6.023124879693780E-004
                   160  4.199255639333100E-007