[Molden Format]
[Atoms] AU
  N     1    7    -4.4600047100    0.1858963200    0.0027413300        
  C     2    6    -1.7684072500   -0.0183656700   -0.0028883300        
  C     3    6    -0.4264365900   -0.0071490900   -2.2708993700        
  C     4    6    -0.4286225300   -0.0107422100    2.2670508900        
  C     5    6     2.1897134900   -0.0005296400   -2.2574103600        
  C     6    6     2.1879618100   -0.0011198300    2.2566411500        
  C     7    6     3.5140782700    0.0035359700    0.0004422700        
  H     8    1    -5.2119501600   -0.8329656500   -1.6457388400        
  H     9    1    -5.1800625800   -0.7415191200    1.5439697600        
  H    10    1    -1.4298895800    0.0003729400   -4.0332824900        
  H    11    1    -1.4330364000   -0.0108616500    4.0290946300        
  H    12    1     3.1934343300   -0.0001333600   -4.0210096900        
  H    13    1     3.1897915100   -0.0021254300    4.0213157200        
  H    14    1     5.5420069000    0.0076531000    0.0012757300        
[5D]
[7F]
[GTO]
  1  0
   s    12 1.00
  0.114200D+05  0.172695D-04
  0.171200D+04  0.134411D-03
  0.389300D+03  0.694561D-03
  0.110000D+03  0.278531D-02
  0.355700D+02  0.863457D-02
  0.125400D+02  0.199805D-01
  0.464400D+01  0.262908D-01
  0.129300D+01 -0.243845D-01
  0.511800D+00 -0.924934D-01
  0.178700D+00 -0.339683D+00
  0.246240D-01  0.345111D+00
  0.112530D-01  0.752750D+00
   s    10 1.00
  0.114200D+05  0.523000D-03
  0.171200D+04  0.404500D-02
  0.389300D+03  0.207750D-01
  0.110000D+03  0.807269D-01
  0.355700D+02  0.233074D+00
  0.125400D+02  0.433501D+00
  0.464400D+01  0.347472D+00
  0.129300D+01  0.412620D-01
  0.511800D+00 -0.850799D-02
  0.178700D+00  0.238400D-02
   s    10 1.00
  0.114200D+05 -0.115000D-03
  0.171200D+04 -0.895000D-03
  0.389300D+03 -0.462400D-02
  0.110000D+03 -0.185280D-01
  0.355700D+02 -0.573390D-01
  0.125400D+02 -0.132076D+00
  0.464400D+01 -0.172510D+00
  0.129300D+01  0.151814D+00
  0.511800D+00  0.599944D+00
  0.178700D+00  0.387462D+00
   s     1 1.00
  0.129300D+01  0.100000D+01
   s     1 1.00
  0.178700D+00  0.100000D+01
   p     5 1.00
  0.266300D+02  0.146700D-01
  0.594800D+01  0.917640D-01
  0.174200D+01  0.298683D+00
  0.555000D+00  0.498487D+00
  0.172500D+00  0.337023D+00
   p     1 1.00
  0.174200D+01  0.100000D+01
   p     1 1.00
  0.555000D+00  0.100000D+01
   d     1 1.00
  0.165400D+01  0.100000D+01
   d     1 1.00
  0.469000D+00  0.100000D+01
   f     1 1.00
  0.109300D+01  0.100000D+01
  
  2  0
   s    10 1.00
  0.823600D+04  0.531000D-03
  0.123500D+04  0.410800D-02
  0.280800D+03  0.210870D-01
  0.792700D+02  0.818530D-01
  0.255900D+02  0.234817D+00
  0.899700D+01  0.434401D+00
  0.331900D+01  0.346129D+00
  0.905900D+00  0.393780D-01
  0.364300D+00 -0.898300D-02
  0.128500D+00  0.238500D-02
   s    10 1.00
  0.823600D+04 -0.113000D-03
  0.123500D+04 -0.878000D-03
  0.280800D+03 -0.454000D-02
  0.792700D+02 -0.181330D-01
  0.255900D+02 -0.557600D-01
  0.899700D+01 -0.126895D+00
  0.331900D+01 -0.170352D+00
  0.905900D+00  0.140382D+00
  0.364300D+00  0.598684D+00
  0.128500D+00  0.395389D+00
   s     1 1.00
  0.905900D+00  0.100000D+01
   s     1 1.00
  0.364300D+00  0.100000D+01
   p     5 1.00
  0.187100D+02  0.140310D-01
  0.413300D+01  0.868660D-01
  0.120000D+01  0.290216D+00
  0.382700D+00  0.501008D+00
  0.120900D+00  0.343406D+00
   p     1 1.00
  0.382700D+00  0.100000D+01
   p     1 1.00
  0.120900D+00  0.100000D+01
   d     1 1.00
  0.109700D+01  0.100000D+01
   d     1 1.00
  0.318000D+00  0.100000D+01
   f     1 1.00
  0.761000D+00  0.100000D+01
  
  3  0
   s    10 1.00
  0.823600D+04  0.531000D-03
  0.123500D+04  0.410800D-02
  0.280800D+03  0.210870D-01
  0.792700D+02  0.818530D-01
  0.255900D+02  0.234817D+00
  0.899700D+01  0.434401D+00
  0.331900D+01  0.346129D+00
  0.905900D+00  0.393780D-01
  0.364300D+00 -0.898300D-02
  0.128500D+00  0.238500D-02
   s    10 1.00
  0.823600D+04 -0.113000D-03
  0.123500D+04 -0.878000D-03
  0.280800D+03 -0.454000D-02
  0.792700D+02 -0.181330D-01
  0.255900D+02 -0.557600D-01
  0.899700D+01 -0.126895D+00
  0.331900D+01 -0.170352D+00
  0.905900D+00  0.140382D+00
  0.364300D+00  0.598684D+00
  0.128500D+00  0.395389D+00
   s     1 1.00
  0.905900D+00  0.100000D+01
   s     1 1.00
  0.364300D+00  0.100000D+01
   p     5 1.00
  0.187100D+02  0.140310D-01
  0.413300D+01  0.868660D-01
  0.120000D+01  0.290216D+00
  0.382700D+00  0.501008D+00
  0.120900D+00  0.343406D+00
   p     1 1.00
  0.382700D+00  0.100000D+01
   p     1 1.00
  0.120900D+00  0.100000D+01
   d     1 1.00
  0.109700D+01  0.100000D+01
   d     1 1.00
  0.318000D+00  0.100000D+01
   f     1 1.00
  0.761000D+00  0.100000D+01
  
  4  0
   s    10 1.00
  0.823600D+04  0.531000D-03
  0.123500D+04  0.410800D-02
  0.280800D+03  0.210870D-01
  0.792700D+02  0.818530D-01
  0.255900D+02  0.234817D+00
  0.899700D+01  0.434401D+00
  0.331900D+01  0.346129D+00
  0.905900D+00  0.393780D-01
  0.364300D+00 -0.898300D-02
  0.128500D+00  0.238500D-02
   s    10 1.00
  0.823600D+04 -0.113000D-03
  0.123500D+04 -0.878000D-03
  0.280800D+03 -0.454000D-02
  0.792700D+02 -0.181330D-01
  0.255900D+02 -0.557600D-01
  0.899700D+01 -0.126895D+00
  0.331900D+01 -0.170352D+00
  0.905900D+00  0.140382D+00
  0.364300D+00  0.598684D+00
  0.128500D+00  0.395389D+00
   s     1 1.00
  0.905900D+00  0.100000D+01
   s     1 1.00
  0.364300D+00  0.100000D+01
   p     5 1.00
  0.187100D+02  0.140310D-01
  0.413300D+01  0.868660D-01
  0.120000D+01  0.290216D+00
  0.382700D+00  0.501008D+00
  0.120900D+00  0.343406D+00
   p     1 1.00
  0.382700D+00  0.100000D+01
   p     1 1.00
  0.120900D+00  0.100000D+01
   d     1 1.00
  0.109700D+01  0.100000D+01
   d     1 1.00
  0.318000D+00  0.100000D+01
   f     1 1.00
  0.761000D+00  0.100000D+01
  
  5  0
   s    10 1.00
  0.823600D+04  0.531000D-03
  0.123500D+04  0.410800D-02
  0.280800D+03  0.210870D-01
  0.792700D+02  0.818530D-01
  0.255900D+02  0.234817D+00
  0.899700D+01  0.434401D+00
  0.331900D+01  0.346129D+00
  0.905900D+00  0.393780D-01
  0.364300D+00 -0.898300D-02
  0.128500D+00  0.238500D-02
   s    10 1.00
  0.823600D+04 -0.113000D-03
  0.123500D+04 -0.878000D-03
  0.280800D+03 -0.454000D-02
  0.792700D+02 -0.181330D-01
  0.255900D+02 -0.557600D-01
  0.899700D+01 -0.126895D+00
  0.331900D+01 -0.170352D+00
  0.905900D+00  0.140382D+00
  0.364300D+00  0.598684D+00
  0.128500D+00  0.395389D+00
   s     1 1.00
  0.905900D+00  0.100000D+01
   s     1 1.00
  0.364300D+00  0.100000D+01
   p     5 1.00
  0.187100D+02  0.140310D-01
  0.413300D+01  0.868660D-01
  0.120000D+01  0.290216D+00
  0.382700D+00  0.501008D+00
  0.120900D+00  0.343406D+00
   p     1 1.00
  0.382700D+00  0.100000D+01
   p     1 1.00
  0.120900D+00  0.100000D+01
   d     1 1.00
  0.109700D+01  0.100000D+01
   d     1 1.00
  0.318000D+00  0.100000D+01
   f     1 1.00
  0.761000D+00  0.100000D+01
  
  6  0
   s    10 1.00
  0.823600D+04  0.531000D-03
  0.123500D+04  0.410800D-02
  0.280800D+03  0.210870D-01
  0.792700D+02  0.818530D-01
  0.255900D+02  0.234817D+00
  0.899700D+01  0.434401D+00
  0.331900D+01  0.346129D+00
  0.905900D+00  0.393780D-01
  0.364300D+00 -0.898300D-02
  0.128500D+00  0.238500D-02
   s    10 1.00
  0.823600D+04 -0.113000D-03
  0.123500D+04 -0.878000D-03
  0.280800D+03 -0.454000D-02
  0.792700D+02 -0.181330D-01
  0.255900D+02 -0.557600D-01
  0.899700D+01 -0.126895D+00
  0.331900D+01 -0.170352D+00
  0.905900D+00  0.140382D+00
  0.364300D+00  0.598684D+00
  0.128500D+00  0.395389D+00
   s     1 1.00
  0.905900D+00  0.100000D+01
   s     1 1.00
  0.364300D+00  0.100000D+01
   p     5 1.00
  0.187100D+02  0.140310D-01
  0.413300D+01  0.868660D-01
  0.120000D+01  0.290216D+00
  0.382700D+00  0.501008D+00
  0.120900D+00  0.343406D+00
   p     1 1.00
  0.382700D+00  0.100000D+01
   p     1 1.00
  0.120900D+00  0.100000D+01
   d     1 1.00
  0.109700D+01  0.100000D+01
   d     1 1.00
  0.318000D+00  0.100000D+01
   f     1 1.00
  0.761000D+00  0.100000D+01
  
  7  0
   s    10 1.00
  0.823600D+04  0.531000D-03
  0.123500D+04  0.410800D-02
  0.280800D+03  0.210870D-01
  0.792700D+02  0.818530D-01
  0.255900D+02  0.234817D+00
  0.899700D+01  0.434401D+00
  0.331900D+01  0.346129D+00
  0.905900D+00  0.393780D-01
  0.364300D+00 -0.898300D-02
  0.128500D+00  0.238500D-02
   s    10 1.00
  0.823600D+04 -0.113000D-03
  0.123500D+04 -0.878000D-03
  0.280800D+03 -0.454000D-02
  0.792700D+02 -0.181330D-01
  0.255900D+02 -0.557600D-01
  0.899700D+01 -0.126895D+00
  0.331900D+01 -0.170352D+00
  0.905900D+00  0.140382D+00
  0.364300D+00  0.598684D+00
  0.128500D+00  0.395389D+00
   s     1 1.00
  0.905900D+00  0.100000D+01
   s     1 1.00
  0.364300D+00  0.100000D+01
   p     5 1.00
  0.187100D+02  0.140310D-01
  0.413300D+01  0.868660D-01
  0.120000D+01  0.290216D+00
  0.382700D+00  0.501008D+00
  0.120900D+00  0.343406D+00
   p     1 1.00
  0.382700D+00  0.100000D+01
   p     1 1.00
  0.120900D+00  0.100000D+01
   d     1 1.00
  0.109700D+01  0.100000D+01
   d     1 1.00
  0.318000D+00  0.100000D+01
   f     1 1.00
  0.761000D+00  0.100000D+01
  
  8  0
   s     4 1.00
  0.130100D+02  0.196850D-01
  0.196200D+01  0.137977D+00
  0.444600D+00  0.478148D+00
  0.122000D+00  0.501240D+00
   s     1 1.00
  0.122000D+00  0.100000D+01
   p     1 1.00
  0.727000D+00  0.100000D+01
  
  9  0
   s     4 1.00
  0.130100D+02  0.196850D-01
  0.196200D+01  0.137977D+00
  0.444600D+00  0.478148D+00
  0.122000D+00  0.501240D+00
   s     1 1.00
  0.122000D+00  0.100000D+01
   p     1 1.00
  0.727000D+00  0.100000D+01
  
 10  0
   s     4 1.00
  0.130100D+02  0.196850D-01
  0.196200D+01  0.137977D+00
  0.444600D+00  0.478148D+00
  0.122000D+00  0.501240D+00
   s     1 1.00
  0.122000D+00  0.100000D+01
   p     1 1.00
  0.727000D+00  0.100000D+01
  
 11  0
   s     4 1.00
  0.130100D+02  0.196850D-01
  0.196200D+01  0.137977D+00
  0.444600D+00  0.478148D+00
  0.122000D+00  0.501240D+00
   s     1 1.00
  0.122000D+00  0.100000D+01
   p     1 1.00
  0.727000D+00  0.100000D+01
  
 12  0
   s     4 1.00
  0.130100D+02  0.196850D-01
  0.196200D+01  0.137977D+00
  0.444600D+00  0.478148D+00
  0.122000D+00  0.501240D+00
   s     1 1.00
  0.122000D+00  0.100000D+01
   p     1 1.00
  0.727000D+00  0.100000D+01
  
 13  0
   s     4 1.00
  0.130100D+02  0.196850D-01
  0.196200D+01  0.137977D+00
  0.444600D+00  0.478148D+00
  0.122000D+00  0.501240D+00
   s     1 1.00
  0.122000D+00  0.100000D+01
   p     1 1.00
  0.727000D+00  0.100000D+01
  
 14  0
   s     4 1.00
  0.130100D+02  0.196850D-01
  0.196200D+01  0.137977D+00
  0.444600D+00  0.478148D+00
  0.122000D+00  0.501240D+00
   s     1 1.00
  0.122000D+00  0.100000D+01
   p     1 1.00
  0.727000D+00  0.100000D+01
  
[MO]
 Sym= __1_A__
 Ene=  0.000000000000000E+000
 Spin= Alpha
 Occup=    2.00000000000000     
                     1  2.261911144981079E-004
                     2  0.998194664629339     
                     3  2.877598148833454E-003
                     4  1.784660682629584E-003
                     5  5.896216916390667E-003
                     6  5.732731654731073E-003
                     7 -5.212856743972543E-003
                     8  1.295957383349016E-004
                     9 -8.233407425355213E-004
                    10  3.502863793051283E-004
                    11  1.549624746351526E-005
                    12 -1.541156602293597E-003
                    13  3.365939903093454E-003
                    14 -6.149914654989086E-005
                    15 -3.036705266026119E-005
                    16 -2.207629712023751E-005
                    17 -3.335800637069006E-005
                    18  7.091590570943611E-005
                    19  4.684423293009965E-005
                    20 -3.829471360889649E-004
                    21  5.789222407012886E-007
                    22 -2.118939576592626E-005
                    23  6.102325449060398E-005
                    24 -5.081846501178946E-004
                    25 -2.180765561650710E-006
                    26 -1.213902605805338E-004
                    27 -4.529968679786571E-005
                    28 -1.046630565415096E-005
                    29  1.866717950977044E-005
                    30 -8.805828632859103E-005
                    31 -5.919450851802444E-005
                    32 -3.934959616213007E-004
                    33  7.642039674754132E-004
                    34  2.593257390727727E-004
                    35 -1.148948363149416E-004
                    36 -4.098064912733189E-003
                    37 -6.474613614311694E-005
                    38 -1.904615031452351E-005
                    39  2.023687723844410E-004
                    40 -9.213435849765961E-006
                    41  2.336775449376556E-005
                    42  4.933807725445204E-003
                    43  7.832666510431662E-004
                    44 -8.541694667309821E-005
                    45 -2.158753974782987E-004
                    46 -4.287023416432629E-006
                    47 -3.202151074684977E-007
                    48  2.001785824795882E-004
                    49  4.792782977726407E-005
                    50  5.065289855969934E-004
                    51  2.226156595956157E-005
                    52  6.042873239337880E-006
                    53 -9.909882002444646E-005
                    54 -3.677982229912395E-004
                    55  2.464696579797246E-006
                    56 -5.442153659967604E-005
                    57  9.815034269634233E-006
                    58  4.406347282203926E-006
                    59 -1.622406865137119E-007
                    60 -3.464604879969944E-005
                    61  3.728734531022989E-005
                    62 -3.761101317588532E-004
                    63 -1.780786339476124E-003
                    64  1.019508210470495E-004
                    65  8.782347299928457E-004
                    66  5.014239654750814E-004
                    67 -1.214740495024816E-004
                    68 -5.513916305651178E-004
                    69  6.087168333653027E-004
                    70  9.322740421853283E-005
                    71  1.379115636224575E-004
                    72 -4.213796033724485E-004
                    73 -3.554163728672738E-004
                    74 -8.866227817906681E-004
                    75 -7.201893209415216E-005
                    76 -1.407850096730127E-005
                    77  1.773409929888460E-005
                    78  6.277544045275410E-005
                    79 -1.017345375788553E-005
                    80  2.081636466396301E-004
                    81  1.913491731997422E-004
                    82 -2.545302313607797E-005
                    83 -1.379160931518373E-004
                    84  5.782333200120385E-005
                    85 -1.151651165750892E-005
                    86 -5.479984068035009E-005
                    87  2.172060894368502E-005
                    88 -1.031434665292877E-005
                    89  1.314488400420415E-005
                    90 -4.511415458337636E-005
                    91 -1.178104672070707E-005
                    92 -3.714084668413687E-004
                    93 -1.787318939157353E-003
                    94  1.112366341424977E-004
                    95  8.178295327080846E-004
                    96  5.225930135410618E-004
                    97 -1.180730776778705E-004
                    98  5.624953946158311E-004
                    99  6.123742570219441E-004
                   100  8.786324378561161E-005
                   101 -1.032664272069574E-004
                   102 -5.651174842620650E-004
                   103 -3.604683649628962E-004
                   104  8.100472489175826E-004
                   105 -7.437972642103308E-005
                   106  1.168037262868373E-005
                   107 -1.756826069970266E-005
                   108  6.164954429882894E-005
                   109 -1.044785224897531E-005
                   110  1.931322604997212E-004
                   111 -1.861261412673027E-004
                   112  2.826912494276051E-005
                   113 -1.335317836802489E-004
                   114  6.394654357481983E-005
                   115  9.825832574515313E-006
                   116 -5.280908626168683E-005
                   117  2.121489739564327E-005
                   118  9.844278225803849E-006
                   119 -1.431108782758996E-005
                   120 -4.404343071636971E-005
                   121 -1.168006098896583E-005
                   122 -1.982312958862704E-004
                   123 -3.677359368143204E-004
                   124  4.785660951256536E-005
                   125  6.101695067472732E-004
                   126 -4.998269822187286E-004
                   127 -4.222540213108004E-005
                   128  2.102948802092145E-005
                   129  2.124052782879024E-004
                   130 -2.933909865265802E-005
                   131  1.338192745433026E-005
                   132  9.320537318761468E-004
                   133  1.641817143592722E-004
                   134 -2.509974836121820E-004
                   135  4.750520255942734E-006
                   136 -5.845182079769068E-007
                   137 -4.406654460279882E-006
                   138  1.331610729372125E-006
                   139  1.013108898147433E-005
                   140  8.007974055572786E-005
                   141  1.989069387304159E-004
                   142  9.613711046103064E-006
                   143 -1.887482880772896E-004
                   144 -1.431214363505798E-005
                   145 -1.239568865967764E-005
                   146 -1.446895716950895E-005
                   147  2.867897373167226E-006
                   148 -4.738891485720116E-006
                   149 -1.535909688463446E-006
                   150 -4.618238706302779E-005
                   151 -2.116313631643846E-006
                   152 -1.942351536679886E-004
                   153 -3.486165978681277E-004
                   154  4.875167824277272E-005
                   155  5.855957441233303E-004
                   156 -5.053621810490696E-004
                   157 -4.212753966233055E-005
                   158 -2.337708063557939E-005
                   159  2.037550714771307E-004
                   160 -3.041240897424139E-005
                   161 -4.587433177558073E-006
                   162  7.995601825057239E-004
                   163  1.632621247060104E-004
                   164  3.188544127136531E-004
                   165  4.214246218213307E-006
                   166  2.165125085227819E-007
                   167  4.493816326281222E-006
                   168  1.353930661102771E-006
                   169  9.958828362562411E-006
                   170  7.140167431312054E-005
                   171 -1.871834159007809E-004
                   172 -1.048459616047073E-005
                   173 -1.833936644249461E-004
                   174 -1.214715705007110E-005
                   175  1.100071768857301E-005
                   176 -1.527928249843870E-005
                   177  2.986378107298020E-006
                   178  4.136042501604576E-006
                   179  1.346948596999946E-006
                   180 -4.510924148442755E-005
                   181 -2.269862281270069E-006
                   182 -1.274152707261258E-004
                   183 -3.943268978745310E-004
                   184  2.705883003551552E-005
                   185  1.593337745059208E-004
                   186 -1.982213600134875E-005
                   187 -4.625388682258171E-005
                   188 -1.750812434086904E-006
                   189  1.013334736638037E-004
                   190  2.155430158638256E-005
                   191  1.123651158481716E-005
                   192 -4.012231778036474E-004
                   193 -1.127233003330205E-004
                   194  7.463730712784446E-005
                   195 -8.687024322018627E-006
                   196 -2.187249458820504E-007
                   197 -1.225267993879732E-009
                   198  3.227876854141230E-006
                   199 -2.142675933330143E-006
                   200 -1.164963755363949E-004
                   201 -8.028045458601469E-006
                   202 -6.702903305547375E-007
                   203  6.462230632477444E-005
                   204  1.787024077762189E-005
                   205  2.102892823031668E-007
                   206  1.783166006570759E-006
                   207  3.104106996886955E-006
                   208  7.083380416458588E-007
                   209  8.142217548769134E-008
                   210 -5.708616510985217E-006
                   211 -2.840529709601576E-006
                   212  2.058491047982568E-003
                   213 -1.730383037121278E-003
                   214  1.684057589872631E-004
                   215  3.134066577637233E-004
                   216  3.447298065461728E-004
                   217  2.424949106773151E-003
                   218 -2.070410699146850E-003
                   219  1.698569346918360E-004
                   220  3.088174716640155E-004
                   221 -3.401147972356794E-004
                   222 -4.599344004306726E-004
                   223 -3.646363462608802E-004
                   224 -6.335879968656316E-005
                   225  1.071494689574391E-005
                   226  4.567425149463585E-005
                   227 -4.617234826567514E-004
                   228 -3.447292412905582E-004
                   229 -6.084934263617891E-005
                   230  1.051083560763413E-005
                   231 -4.582801639193727E-005
                   232 -9.916982638310435E-005
                   233 -4.846930725467366E-004
                   234  5.361369750678469E-006
                   235 -1.711155875600329E-006
                   236 -9.593315822808904E-006
                   237 -1.041380837295663E-004
                   238 -4.794272164330990E-004
                   239  5.169232320169469E-006
                   240 -1.584319155773034E-006
                   241  9.211444426031951E-006
                   242  5.857083064422681E-006
                   243  1.325380995613073E-004
                   244  3.153840628254437E-005
                   245  2.106593348822746E-006
                   246 -2.688670465692493E-007
 Sym= __2_A__
 Ene=  0.000000000000000E+000
 Spin= Alpha
 Occup=    2.00000000000000     
                     1 -2.014731054859111E-005
                     2 -8.557713180384366E-005
                     3  2.080574387353188E-003
                     4 -1.685580945787633E-005
                     5  1.219270472852569E-003
                     6  1.893210783681144E-003
                     7  2.598968536164154E-004
                     8 -3.162361880184629E-005
                     9 -1.486921508072010E-004
                    10  1.097345370705490E-004
                    11 -3.587189570367098E-006
                    12  5.719543833455054E-005
                    13  5.289140446787192E-005
                    14 -5.308269647837693E-008
                    15 -7.119728428831032E-005
                    16 -7.732254729405623E-007
                    17 -1.941318205683861E-007
                    18  4.256823008577622E-005
                    19 -4.256388118668924E-006
                    20  1.579897099235284E-004
                    21  1.454305568769093E-005
                    22  7.096883717655114E-006
                    23  1.084272530615035E-004
                    24 -3.571598690807371E-005
                    25 -1.542557249540023E-006
                    26  1.386240396684026E-004
                    27 -5.664429706979383E-005
                    28  1.141974483774848E-006
                    29 -3.282931965149410E-006
                    30  1.227459234433100E-004
                    31  3.797419517304865E-005
                    32   1.00096168106640     
                    33  8.751475151302906E-003
                    34  2.784092540185669E-003
                    35 -8.240519607022481E-003
                    36 -2.536912863475520E-003
                    37  7.239389954527277E-004
                    38 -1.381605427848196E-007
                    39  1.071518512118578E-003
                    40 -2.347678138613638E-004
                    41  1.164276395218216E-005
                    42  3.408368916216812E-003
                    43 -1.304562677800503E-004
                    44  1.045548534850970E-005
                    45  2.990902814981949E-004
                    46 -2.934165763676900E-006
                    47  7.937111622290610E-008
                    48  4.094076996556706E-004
                    49 -2.852207600444829E-005
                    50 -1.041266439643421E-003
                    51  2.805771132859381E-005
                    52 -1.358271447101014E-006
                    53 -1.119683074103288E-004
                    54  4.368465002401649E-005
                    55  7.542303525313162E-007
                    56  3.054001899375568E-004
                    57 -8.555003754257447E-006
                    58  9.608336558143364E-007
                    59 -2.137140256780923E-007
                    60  7.948505304698011E-005
                    61  1.981231362128800E-005
                    62  1.275330585251274E-002
                    63 -1.852052503539782E-003
                    64 -3.162191340633308E-004
                    65  3.166156769656165E-003
                    66 -1.442864230719490E-004
                    67  1.318233974464071E-004
                    68  2.570458782683146E-004
                    69  2.459030886039427E-005
                    70 -1.838132878657700E-006
                    71  5.346994195246025E-004
                    72  1.491832554692322E-004
                    73 -3.576543943617954E-005
                    74 -1.813358631348001E-003
                    75 -9.332384832079523E-006
                    76  2.351152135910167E-005
                    77  9.371127168415810E-006
                    78 -3.496463971774286E-005
                    79 -4.928927008857140E-006
                    80 -4.081985530162488E-004
                    81 -4.697759951650972E-004
                    82 -3.335050094221678E-006
                    83  7.557487611752216E-004
                    84 -1.271808838359558E-006
                    85  4.980687585263787E-005
                    86  1.051516508388752E-004
                    87  2.072774734284665E-007
                    88 -1.801911082123752E-005
                    89 -7.171645401141436E-006
                    90 -3.061490305267602E-005
                    91  5.286902786754421E-006
                    92  1.282009774555272E-002
                    93 -1.847558426768697E-003
                    94 -3.110442759843325E-004
                    95  3.129075491366810E-003
                    96 -1.434415873823365E-004
                    97  1.312629247302566E-004
                    98 -2.589874336930836E-004
                    99  2.914340958732918E-005
                   100  2.515678996180015E-006
                   101 -5.086887625381323E-004
                   102  1.658617872490941E-004
                   103 -3.801764549102845E-005
                   104  1.834628246606326E-003
                   105 -9.537267701996562E-006
                   106 -2.476248204567653E-005
                   107 -9.143461008486967E-006
                   108 -3.595874037770268E-005
                   109 -4.878100148468275E-006
                   110 -4.234288933024257E-004
                   111  4.713793667612507E-004
                   112  1.454199525966008E-006
                   113  7.633199606909410E-004
                   114 -2.953890341237977E-006
                   115 -5.123217090426894E-005
                   116  1.064724291185211E-004
                   117  1.486214553595959E-007
                   118  1.683881311177015E-005
                   119  7.391111932620316E-006
                   120 -2.974701939960075E-005
                   121  5.489742680222130E-006
                   122 -1.384358376243446E-004
                   123 -7.072240911417434E-004
                   124  2.528347603161749E-004
                   125 -3.250424542242573E-004
                   126 -1.928530565790053E-004
                   127  2.480839604551678E-005
                   128 -4.256697819044208E-005
                   129  5.986840248303732E-004
                   130 -7.731330163350040E-007
                   131  3.992662856837112E-005
                   132  5.620534251913139E-004
                   133  4.734404622533054E-006
                   134  3.351981838598473E-004
                   135  1.828349573022255E-007
                   136  4.166528435569737E-005
                   137  1.402380864222801E-007
                   138 -3.450468782309760E-005
                   139 -1.654128367265114E-006
                   140  1.927634861865768E-004
                   141 -2.630660492434871E-004
                   142  2.717520194114516E-006
                   143 -2.652597454760364E-004
                   144 -5.144226812925537E-006
                   145 -1.751078353595155E-005
                   146  1.233136148251892E-005
                   147  1.392971635635672E-007
                   148 -1.237398704185245E-005
                   149 -2.246333112051093E-006
                   150 -2.613549130919459E-005
                   151 -4.172462457609836E-007
                   152 -1.386553201947555E-004
                   153 -7.091280280355728E-004
                   154  2.522027222148434E-004
                   155 -3.277346180875820E-004
                   156 -1.921253433522749E-004
                   157  2.435572930775506E-005
                   158  4.327422354196305E-005
                   159  6.023125006228657E-004
                   160  4.199257897673314E-007