[Molden Format]
[Atoms] AU
  N     1    7     0.0000000000   -4.2907334100    0.0000000000        
  C     2    6     0.0000000000   -1.7772236300    0.0000000000        
  C     3    6    -2.3389203600   -0.4111016300    0.0000000000        
  C     4    6     2.3389203600   -0.4111016300    0.0000000000        
  C     5    6    -2.2998668500    2.1639215300    0.0000000000        
  C     6    6     2.2998668500    2.1639215300    0.0000000000        
  C     7    6     0.0000000000    3.4755251800    0.0000000000        
  H     8    1    -6.4332024200   -8.2594793600    0.0000000000        
  H     9    1     1.6528040300   -5.3103747800    0.0000000000        
  H    10    1    -4.0745407300   -1.4447408500    0.0000000000        
  H    11    1     4.0745407300   -1.4447408500    0.0000000000        
  H    12    1    -4.0420632100    3.1963889500    0.0000000000        
  H    13    1     4.0420632100    3.1963889500    0.0000000000        
  H    14    1     0.0000000000    5.5020335600    0.0000000000        
[5D]
[7F]
[GTO]
  1  0
   s    12 1.00
  0.114200D+05  0.172695D-04
  0.171200D+04  0.134411D-03
  0.389300D+03  0.694561D-03
  0.110000D+03  0.278531D-02
  0.355700D+02  0.863457D-02
  0.125400D+02  0.199805D-01
  0.464400D+01  0.262908D-01
  0.129300D+01 -0.243845D-01
  0.511800D+00 -0.924934D-01
  0.178700D+00 -0.339683D+00
  0.246240D-01  0.345111D+00
  0.112530D-01  0.752750D+00
   s    10 1.00
  0.114200D+05  0.523000D-03
  0.171200D+04  0.404500D-02
  0.389300D+03  0.207750D-01
  0.110000D+03  0.807269D-01
  0.355700D+02  0.233074D+00
  0.125400D+02  0.433501D+00
  0.464400D+01  0.347472D+00
  0.129300D+01  0.412620D-01
  0.511800D+00 -0.850799D-02
  0.178700D+00  0.238400D-02
   s    10 1.00
  0.114200D+05 -0.115000D-03
  0.171200D+04 -0.895000D-03
  0.389300D+03 -0.462400D-02
  0.110000D+03 -0.185280D-01
  0.355700D+02 -0.573390D-01
  0.125400D+02 -0.132076D+00
  0.464400D+01 -0.172510D+00
  0.129300D+01  0.151814D+00
  0.511800D+00  0.599944D+00
  0.178700D+00  0.387462D+00
   s     1 1.00
  0.129300D+01  0.100000D+01
   s     1 1.00
  0.178700D+00  0.100000D+01
   p     5 1.00
  0.266300D+02  0.146700D-01
  0.594800D+01  0.917640D-01
  0.174200D+01  0.298683D+00
  0.555000D+00  0.498487D+00
  0.172500D+00  0.337023D+00
   p     1 1.00
  0.174200D+01  0.100000D+01
   p     1 1.00
  0.555000D+00  0.100000D+01
   d     1 1.00
  0.165400D+01  0.100000D+01
   d     1 1.00
  0.469000D+00  0.100000D+01
   f     1 1.00
  0.109300D+01  0.100000D+01
  
  2  0
   s    10 1.00
  0.823600D+04  0.531000D-03
  0.123500D+04  0.410800D-02
  0.280800D+03  0.210870D-01
  0.792700D+02  0.818530D-01
  0.255900D+02  0.234817D+00
  0.899700D+01  0.434401D+00
  0.331900D+01  0.346129D+00
  0.905900D+00  0.393780D-01
  0.364300D+00 -0.898300D-02
  0.128500D+00  0.238500D-02
   s    10 1.00
  0.823600D+04 -0.113000D-03
  0.123500D+04 -0.878000D-03
  0.280800D+03 -0.454000D-02
  0.792700D+02 -0.181330D-01
  0.255900D+02 -0.557600D-01
  0.899700D+01 -0.126895D+00
  0.331900D+01 -0.170352D+00
  0.905900D+00  0.140382D+00
  0.364300D+00  0.598684D+00
  0.128500D+00  0.395389D+00
   s     1 1.00
  0.905900D+00  0.100000D+01
   s     1 1.00
  0.364300D+00  0.100000D+01
   p     5 1.00
  0.187100D+02  0.140310D-01
  0.413300D+01  0.868660D-01
  0.120000D+01  0.290216D+00
  0.382700D+00  0.501008D+00
  0.120900D+00  0.343406D+00
   p     1 1.00
  0.382700D+00  0.100000D+01
   p     1 1.00
  0.120900D+00  0.100000D+01
   d     1 1.00
  0.109700D+01  0.100000D+01
   d     1 1.00
  0.318000D+00  0.100000D+01
   f     1 1.00
  0.761000D+00  0.100000D+01
  
  3  0
   s    10 1.00
  0.823600D+04  0.531000D-03
  0.123500D+04  0.410800D-02
  0.280800D+03  0.210870D-01
  0.792700D+02  0.818530D-01
  0.255900D+02  0.234817D+00
  0.899700D+01  0.434401D+00
  0.331900D+01  0.346129D+00
  0.905900D+00  0.393780D-01
  0.364300D+00 -0.898300D-02
  0.128500D+00  0.238500D-02
   s    10 1.00
  0.823600D+04 -0.113000D-03
  0.123500D+04 -0.878000D-03
  0.280800D+03 -0.454000D-02
  0.792700D+02 -0.181330D-01
  0.255900D+02 -0.557600D-01
  0.899700D+01 -0.126895D+00
  0.331900D+01 -0.170352D+00
  0.905900D+00  0.140382D+00
  0.364300D+00  0.598684D+00
  0.128500D+00  0.395389D+00
   s     1 1.00
  0.905900D+00  0.100000D+01
   s     1 1.00
  0.364300D+00  0.100000D+01
   p     5 1.00
  0.187100D+02  0.140310D-01
  0.413300D+01  0.868660D-01
  0.120000D+01  0.290216D+00
  0.382700D+00  0.501008D+00
  0.120900D+00  0.343406D+00
   p     1 1.00
  0.382700D+00  0.100000D+01
   p     1 1.00
  0.120900D+00  0.100000D+01
   d     1 1.00
  0.109700D+01  0.100000D+01
   d     1 1.00
  0.318000D+00  0.100000D+01
   f     1 1.00
  0.761000D+00  0.100000D+01
  
  4  0
   s    10 1.00
  0.823600D+04  0.531000D-03
  0.123500D+04  0.410800D-02
  0.280800D+03  0.210870D-01
  0.792700D+02  0.818530D-01
  0.255900D+02  0.234817D+00
  0.899700D+01  0.434401D+00
  0.331900D+01  0.346129D+00
  0.905900D+00  0.393780D-01
  0.364300D+00 -0.898300D-02
  0.128500D+00  0.238500D-02
   s    10 1.00
  0.823600D+04 -0.113000D-03
  0.123500D+04 -0.878000D-03
  0.280800D+03 -0.454000D-02
  0.792700D+02 -0.181330D-01
  0.255900D+02 -0.557600D-01
  0.899700D+01 -0.126895D+00
  0.331900D+01 -0.170352D+00
  0.905900D+00  0.140382D+00
  0.364300D+00  0.598684D+00
  0.128500D+00  0.395389D+00
   s     1 1.00
  0.905900D+00  0.100000D+01
   s     1 1.00
  0.364300D+00  0.100000D+01
   p     5 1.00
  0.187100D+02  0.140310D-01
  0.413300D+01  0.868660D-01
  0.120000D+01  0.290216D+00
  0.382700D+00  0.501008D+00
  0.120900D+00  0.343406D+00
   p     1 1.00
  0.382700D+00  0.100000D+01
   p     1 1.00
  0.120900D+00  0.100000D+01
   d     1 1.00
  0.109700D+01  0.100000D+01
   d     1 1.00
  0.318000D+00  0.100000D+01
   f     1 1.00
  0.761000D+00  0.100000D+01
  
  5  0
   s    10 1.00
  0.823600D+04  0.531000D-03
  0.123500D+04  0.410800D-02
  0.280800D+03  0.210870D-01
  0.792700D+02  0.818530D-01
  0.255900D+02  0.234817D+00
  0.899700D+01  0.434401D+00
  0.331900D+01  0.346129D+00
  0.905900D+00  0.393780D-01
  0.364300D+00 -0.898300D-02
  0.128500D+00  0.238500D-02
   s    10 1.00
  0.823600D+04 -0.113000D-03
  0.123500D+04 -0.878000D-03
  0.280800D+03 -0.454000D-02
  0.792700D+02 -0.181330D-01
  0.255900D+02 -0.557600D-01
  0.899700D+01 -0.126895D+00
  0.331900D+01 -0.170352D+00
  0.905900D+00  0.140382D+00
  0.364300D+00  0.598684D+00
  0.128500D+00  0.395389D+00
   s     1 1.00
  0.905900D+00  0.100000D+01
   s     1 1.00
  0.364300D+00  0.100000D+01
   p     5 1.00
  0.187100D+02  0.140310D-01
  0.413300D+01  0.868660D-01
  0.120000D+01  0.290216D+00
  0.382700D+00  0.501008D+00
  0.120900D+00  0.343406D+00
   p     1 1.00
  0.382700D+00  0.100000D+01
   p     1 1.00
  0.120900D+00  0.100000D+01
   d     1 1.00
  0.109700D+01  0.100000D+01
   d     1 1.00
  0.318000D+00  0.100000D+01
   f     1 1.00
  0.761000D+00  0.100000D+01
  
  6  0
   s    10 1.00
  0.823600D+04  0.531000D-03
  0.123500D+04  0.410800D-02
  0.280800D+03  0.210870D-01
  0.792700D+02  0.818530D-01
  0.255900D+02  0.234817D+00
  0.899700D+01  0.434401D+00
  0.331900D+01  0.346129D+00
  0.905900D+00  0.393780D-01
  0.364300D+00 -0.898300D-02
  0.128500D+00  0.238500D-02
   s    10 1.00
  0.823600D+04 -0.113000D-03
  0.123500D+04 -0.878000D-03
  0.280800D+03 -0.454000D-02
  0.792700D+02 -0.181330D-01
  0.255900D+02 -0.557600D-01
  0.899700D+01 -0.126895D+00
  0.331900D+01 -0.170352D+00
  0.905900D+00  0.140382D+00
  0.364300D+00  0.598684D+00
  0.128500D+00  0.395389D+00
   s     1 1.00
  0.905900D+00  0.100000D+01
   s     1 1.00
  0.364300D+00  0.100000D+01
   p     5 1.00
  0.187100D+02  0.140310D-01
  0.413300D+01  0.868660D-01
  0.120000D+01  0.290216D+00
  0.382700D+00  0.501008D+00
  0.120900D+00  0.343406D+00
   p     1 1.00
  0.382700D+00  0.100000D+01
   p     1 1.00
  0.120900D+00  0.100000D+01
   d     1 1.00
  0.109700D+01  0.100000D+01
   d     1 1.00
  0.318000D+00  0.100000D+01
   f     1 1.00
  0.761000D+00  0.100000D+01
  
  7  0
   s    10 1.00
  0.823600D+04  0.531000D-03
  0.123500D+04  0.410800D-02
  0.280800D+03  0.210870D-01
  0.792700D+02  0.818530D-01
  0.255900D+02  0.234817D+00
  0.899700D+01  0.434401D+00
  0.331900D+01  0.346129D+00
  0.905900D+00  0.393780D-01
  0.364300D+00 -0.898300D-02
  0.128500D+00  0.238500D-02
   s    10 1.00
  0.823600D+04 -0.113000D-03
  0.123500D+04 -0.878000D-03
  0.280800D+03 -0.454000D-02
  0.792700D+02 -0.181330D-01
  0.255900D+02 -0.557600D-01
  0.899700D+01 -0.126895D+00
  0.331900D+01 -0.170352D+00
  0.905900D+00  0.140382D+00
  0.364300D+00  0.598684D+00
  0.128500D+00  0.395389D+00
   s     1 1.00
  0.905900D+00  0.100000D+01
   s     1 1.00
  0.364300D+00  0.100000D+01
   p     5 1.00
  0.187100D+02  0.140310D-01
  0.413300D+01  0.868660D-01
  0.120000D+01  0.290216D+00
  0.382700D+00  0.501008D+00
  0.120900D+00  0.343406D+00
   p     1 1.00
  0.382700D+00  0.100000D+01
   p     1 1.00
  0.120900D+00  0.100000D+01
   d     1 1.00
  0.109700D+01  0.100000D+01
   d     1 1.00
  0.318000D+00  0.100000D+01
   f     1 1.00
  0.761000D+00  0.100000D+01
  
  8  0
   s     4 1.00
  0.130100D+02  0.196850D-01
  0.196200D+01  0.137977D+00
  0.444600D+00  0.478148D+00
  0.122000D+00  0.501240D+00
   s     1 1.00
  0.122000D+00  0.100000D+01
   p     1 1.00
  0.727000D+00  0.100000D+01
  
  9  0
   s     4 1.00
  0.130100D+02  0.196850D-01
  0.196200D+01  0.137977D+00
  0.444600D+00  0.478148D+00
  0.122000D+00  0.501240D+00
   s     1 1.00
  0.122000D+00  0.100000D+01
   p     1 1.00
  0.727000D+00  0.100000D+01
  
 10  0
   s     4 1.00
  0.130100D+02  0.196850D-01
  0.196200D+01  0.137977D+00
  0.444600D+00  0.478148D+00
  0.122000D+00  0.501240D+00
   s     1 1.00
  0.122000D+00  0.100000D+01
   p     1 1.00
  0.727000D+00  0.100000D+01
  
 11  0
   s     4 1.00
  0.130100D+02  0.196850D-01
  0.196200D+01  0.137977D+00
  0.444600D+00  0.478148D+00
  0.122000D+00  0.501240D+00
   s     1 1.00
  0.122000D+00  0.100000D+01
   p     1 1.00
  0.727000D+00  0.100000D+01
  
 12  0
   s     4 1.00
  0.130100D+02  0.196850D-01
  0.196200D+01  0.137977D+00
  0.444600D+00  0.478148D+00
  0.122000D+00  0.501240D+00
   s     1 1.00
  0.122000D+00  0.100000D+01
   p     1 1.00
  0.727000D+00  0.100000D+01
  
 13  0
   s     4 1.00
  0.130100D+02  0.196850D-01
  0.196200D+01  0.137977D+00
  0.444600D+00  0.478148D+00
  0.122000D+00  0.501240D+00
   s     1 1.00
  0.122000D+00  0.100000D+01
   p     1 1.00
  0.727000D+00  0.100000D+01
  
 14  0
   s     4 1.00
  0.130100D+02  0.196850D-01
  0.196200D+01  0.137977D+00
  0.444600D+00  0.478148D+00
  0.122000D+00  0.501240D+00
   s     1 1.00
  0.122000D+00  0.100000D+01
   p     1 1.00
  0.727000D+00  0.100000D+01
  
[MO]
 Sym= __1_A__
 Ene=   1.00000000000000     
 Spin= Alpha
 Occup=    1.00000000000000     
                     1  1.500637940382904E-004
                     2  0.998314922996017     
                     3 -3.088343126653448E-003
                     4  1.975958278214248E-003
                     5  6.540110180944368E-003
                     6  2.747414544502128E-003
                     7  5.890931623002181E-003
                     8  0.000000000000000E+000
                     9 -7.381635064077827E-004
                    10 -5.816637948672773E-004
                    11  0.000000000000000E+000
                    12 -2.571752549442473E-003
                    13 -1.522582021156470E-003
                    14  0.000000000000000E+000
                    15 -5.464514742659487E-005
                    16  0.000000000000000E+000
                    17  0.000000000000000E+000
                    18 -1.889185427659815E-004
                    19 -6.890762022261790E-005
                    20  1.257595580594674E-004
                    21  0.000000000000000E+000
                    22  0.000000000000000E+000
                    23 -1.878374287145117E-004
                    24  5.912161766050962E-004
                    25  0.000000000000000E+000
                    26  3.197384611446505E-006
                    27 -5.470993004898275E-005
                    28  0.000000000000000E+000
                    29  0.000000000000000E+000
                    30  1.745660391936564E-005
                    31 -1.098888204774335E-004
                    32 -3.963513074336533E-004
                    33  3.810285973919254E-004
                    34  3.266190820762366E-004
                    35 -9.380019814799429E-006
                    36  1.213102172581359E-004
                    37 -2.877924005721741E-003
                    38  0.000000000000000E+000
                    39  5.020349522295290E-004
                    40  2.462864430583037E-004
                    41  0.000000000000000E+000
                    42 -2.493470911766210E-003
                    43  5.034607193364882E-003
                    44  0.000000000000000E+000
                    45  4.302978453658242E-006
                    46  0.000000000000000E+000
                    47  0.000000000000000E+000
                    48 -1.327043152383195E-004
                    49  2.300235813190131E-005
                    50 -1.849023483957153E-004
                    51  0.000000000000000E+000
                    52  0.000000000000000E+000
                    53  2.066603195858954E-004
                    54  8.139289038671607E-004
                    55  0.000000000000000E+000
                    56 -8.509136699512578E-006
                    57 -8.838909980986518E-005
                    58  0.000000000000000E+000
                    59  0.000000000000000E+000
                    60 -2.182068501558923E-005
                    61 -1.432572170188527E-004
                    62 -5.989761467287717E-004
                    63 -2.381402005817795E-003
                    64 -8.392240656292260E-005
                    65  2.347146103042822E-003
                    66 -6.110100487193213E-004
                    67  1.386475223507373E-004
                    68  0.000000000000000E+000
                    69  4.495377334970435E-004
                    70  9.010413588518572E-004
                    71  0.000000000000000E+000
                    72 -1.647804747628875E-003
                    73  7.998864039234768E-004
                    74  0.000000000000000E+000
                    75 -4.402495828144597E-005
                    76  0.000000000000000E+000
                    77  0.000000000000000E+000
                    78 -7.327643323244119E-005
                    79 -2.729707765221435E-005
                    80 -1.512240717733712E-004
                    81  0.000000000000000E+000
                    82  0.000000000000000E+000
                    83  1.239376227965749E-004
                    84  8.531329166683865E-005
                    85  0.000000000000000E+000
                    86  6.514774457566071E-006
                    87 -4.036178649529598E-005
                    88  0.000000000000000E+000
                    89  0.000000000000000E+000
                    90 -1.196155119158734E-005
                    91 -1.584733178281043E-004
                    92 -1.098394076741073E-004
                    93 -3.272728951786692E-004
                    94  2.070154527032682E-004
                    95 -4.120672063223491E-004
                    96  1.641278086530432E-004
                    97 -1.697410844910968E-004
                    98  0.000000000000000E+000
                    99  4.104609408906365E-004
                   100  3.360544485708863E-004
                   101  0.000000000000000E+000
                   102  6.288667830021315E-004
                   103 -1.487333814470167E-003
                   104  0.000000000000000E+000
                   105 -1.423366436725662E-005
                   106  0.000000000000000E+000
                   107  0.000000000000000E+000
                   108 -2.957276219059772E-005
                   109 -9.761658728070111E-006
                   110  1.693850983648118E-004
                   111  0.000000000000000E+000
                   112  0.000000000000000E+000
                   113 -7.422561454376803E-005
                   114 -1.574898802508356E-005
                   115  0.000000000000000E+000
                   116 -2.320379414487475E-005
                   117 -2.514194753922072E-005
                   118  0.000000000000000E+000
                   119  0.000000000000000E+000
                   120  2.005320254052964E-005
                   121 -2.397080173296562E-005
                   122 -2.708956535944818E-004
                   123 -6.897874899692793E-004
                   124  1.687011114260150E-004
                   125  4.278188990366488E-004
                   126 -2.765609504979771E-005
                   127 -3.021582745919011E-004
                   128  0.000000000000000E+000
                   129  2.305406146925836E-004
                   130  6.197017954384680E-004
                   131  0.000000000000000E+000
                   132  3.059477065833727E-004
                   133  2.110098970219512E-003
                   134  0.000000000000000E+000
                   135  1.268303025482139E-005
                   136  0.000000000000000E+000
                   137  0.000000000000000E+000
                   138  4.882021455013966E-005
                   139 -2.049961641754268E-006
                   140  2.178230293181714E-004
                   141  0.000000000000000E+000
                   142  0.000000000000000E+000
                   143  3.984799907435782E-004
                   144  2.712056208029414E-004
                   145  0.000000000000000E+000
                   146 -1.122268385583491E-005
                   147 -6.556544742439362E-005
                   148  0.000000000000000E+000
                   149  0.000000000000000E+000
                   150 -2.025687787211297E-005
                   151 -5.686553891525664E-005
                   152 -1.665743882780993E-004
                   153 -5.345302839359913E-004
                   154  2.120147783066392E-005
                   155  4.285237937165029E-004
                   156  1.728325053224181E-005
                   157  2.441773660488026E-005
                   158  0.000000000000000E+000
                   159  3.809479888162830E-005
                   160 -3.252092369462923E-005
                   161  0.000000000000000E+000
                   162  6.903428557624839E-004
                   163 -3.945590147893047E-004
                   164  0.000000000000000E+000
                   165  4.497348703588591E-007
                   166  0.000000000000000E+000
                   167  0.000000000000000E+000
                   168 -1.415348942839483E-006
                   169  1.477811721742779E-005
                   170  5.492952038092966E-005
                   171  0.000000000000000E+000
                   172  0.000000000000000E+000
                   173  1.484256794418384E-005
                   174  2.839048451318129E-006
                   175  0.000000000000000E+000
                   176  5.276975530001843E-006
                   177 -9.082173511859078E-006
                   178  0.000000000000000E+000
                   179  0.000000000000000E+000
                   180 -2.947434068258100E-005
                   181 -1.544922150879316E-005
                   182 -1.632899733733210E-004
                   183 -4.715573594294355E-004
                   184  4.366438181164940E-005
                   185  2.355663832320023E-004
                   186 -4.937849159666327E-005
                   187 -7.185909666130781E-005
                   188  0.000000000000000E+000
                   189  2.419135063350250E-004
                   190  1.016384934741998E-004
                   191  0.000000000000000E+000
                   192  1.377702494538210E-003
                   193 -2.891948085203172E-004
                   194  0.000000000000000E+000
                   195  8.476678231872399E-007
                   196  0.000000000000000E+000
                   197  0.000000000000000E+000
                   198 -3.851934620329336E-006
                   199  8.573260840634515E-006
                   200  6.248854787829953E-006
                   201  0.000000000000000E+000
                   202  0.000000000000000E+000
                   203 -8.941734783945369E-005
                   204 -2.041935324267799E-004
                   205  0.000000000000000E+000
                   206 -7.632354728412491E-006
                   207 -4.768623309939827E-006
                   208  0.000000000000000E+000
                   209  0.000000000000000E+000
                   210  1.078437240946348E-005
                   211 -3.930288366250152E-006
                   212 -2.599026100165945E-005
                   213  2.162527051872768E-005
                   214  9.864225695959116E-007
                   215  1.819671897496615E-006
                   216  0.000000000000000E+000
                   217 -1.446675647828001E-003
                   218 -4.335550140902709E-004
                   219 -2.309156844921889E-004
                   220  6.356701774632773E-005
                   221  0.000000000000000E+000
                   222 -1.960998316310585E-004
                   223 -5.410215959659728E-004
                   224  3.169821178723955E-005
                   225 -6.958181778477784E-005
                   226  0.000000000000000E+000
                   227  1.367792181834762E-004
                   228 -7.161416163711479E-004
                   229 -4.104895907204177E-005
                   230 -1.675860358388989E-005
                   231  0.000000000000000E+000
                   232  2.768316022451223E-005
                   233 -6.401605497657083E-004
                   234  1.482320441866213E-005
                   235 -2.618983483095457E-006
                   236  0.000000000000000E+000
                   237  3.130534946322254E-005
                   238 -3.740787895576502E-004
                   239  8.508700325359066E-007
                   240  7.727893676234791E-006
                   241  0.000000000000000E+000
                   242 -7.317461529059491E-005
                   243  3.822493926094125E-005
                   244  6.380936553449683E-007
                   245  2.966087810826923E-005
                   246  0.000000000000000E+000
 Sym= __2_A__
 Ene=   2.00000000000000     
 Spin= Alpha
 Occup=    1.00000000000000     
                     1  2.330850096975580E-005
                     2  3.504946699534271E-004
                     3 -3.423771893349782E-003
                     4 -1.266258005586963E-004
                     5 -1.646652581182852E-003
                     6  1.195288871138897E-003
                     7 -4.351764872070814E-003
                     8  0.000000000000000E+000
                     9  5.203300537912576E-005
                    10  7.156417559285819E-005
                    11  0.000000000000000E+000
                    12 -2.010915536798590E-004
                    13  3.877627634852307E-004
                    14  0.000000000000000E+000
                    15 -2.423139185484901E-005
                    16  0.000000000000000E+000
                    17  0.000000000000000E+000
                    18  7.972707106162791E-005
                    19 -2.915490719544020E-005
                    20  1.606828989859493E-004
                    21  0.000000000000000E+000
                    22  0.000000000000000E+000
                    23 -6.211756777082467E-005
                    24  6.137885112873824E-005
                    25  0.000000000000000E+000
                    26  1.633480980490904E-005
                    27 -6.796010664063817E-005
                    28  0.000000000000000E+000
                    29  0.000000000000000E+000
                    30  3.162393323278881E-005
                    31 -1.300109898828782E-004
                    32  -1.00078137597197     
                    33 -9.556226595593388E-003
                    34 -2.889588765071336E-003
                    35  8.263699060686119E-003
                    36  4.252192199605935E-004
                    37  5.043451983487464E-003
                    38  0.000000000000000E+000
                    39 -1.618436965802673E-004
                    40 -5.333073203509400E-004
                    41  0.000000000000000E+000
                    42 -2.265646021603117E-004
                    43 -4.851275469646271E-003
                    44  0.000000000000000E+000
                    45  5.378352071916945E-004
                    46  0.000000000000000E+000
                    47  0.000000000000000E+000
                    48  2.480455305165968E-004
                    49  2.243648432802686E-006
                    50 -5.585362482764855E-004
                    51  0.000000000000000E+000
                    52  0.000000000000000E+000
                    53  8.991541625279088E-004
                    54  1.392410126630482E-005
                    55  0.000000000000000E+000
                    56 -1.145623945686752E-006
                    57 -1.140811123396805E-004
                    58  0.000000000000000E+000
                    59  0.000000000000000E+000
                    60 -2.127918845735125E-006
                    61 -3.997238431251680E-004
                    62 -1.452473858657137E-002
                    63  2.371390151577953E-003
                    64  2.625503613262555E-004
                    65 -3.032276615137949E-003
                    66  2.784521734584849E-004
                    67 -4.327597044291152E-004
                    68  0.000000000000000E+000
                    69 -7.184228358735604E-004
                    70 -9.581440656575096E-006
                    71  0.000000000000000E+000
                    72  2.045733091345340E-003
                    73  2.207589476455660E-005
                    74  0.000000000000000E+000
                    75 -2.708617582696817E-005
                    76  0.000000000000000E+000
                    77  0.000000000000000E+000
                    78  2.899213711276248E-005
                    79  5.837946568192537E-007
                    80  4.122104878903431E-004
                    81  0.000000000000000E+000
                    82  0.000000000000000E+000
                    83  6.216985437676224E-004
                    84  3.407596024619267E-004
                    85  0.000000000000000E+000
                    86 -3.387262168779804E-005
                    87  5.961622198388333E-005
                    88  0.000000000000000E+000
                    89  0.000000000000000E+000
                    90 -6.198632861210088E-005
                    91 -1.483546093343200E-004
                    92 -1.601641998373107E-002
                    93  2.379031954613763E-003
                    94  2.574236460705994E-004
                    95 -3.047955652417903E-003
                    96 -5.680828635432527E-004
                    97 -5.451793182641590E-004
                    98  0.000000000000000E+000
                    99  7.341752547908614E-004
                   100 -4.598927799291066E-005
                   101  0.000000000000000E+000
                   102 -2.169054005221896E-003
                   103 -3.162459935624173E-005
                   104  0.000000000000000E+000
                   105 -3.113376206529871E-005
                   106  0.000000000000000E+000
                   107  0.000000000000000E+000
                   108  3.147442248055476E-005
                   109  1.534736936355949E-005
                   110  3.972782540037261E-004
                   111  0.000000000000000E+000
                   112  0.000000000000000E+000
                   113  6.153532997139790E-004
                   114 -3.114959704523279E-004
                   115  0.000000000000000E+000
                   116  3.820159116119543E-005
                   117  6.566439720138638E-005
                   118  0.000000000000000E+000
                   119  0.000000000000000E+000
                   120  5.509559636778600E-005
                   121 -1.427443885178305E-004
                   122 -2.193800281464072E-004
                   123  5.286911054617837E-004
                   124 -2.244788338188273E-004
                   125  8.733264412864502E-005
                   126  8.584376868797181E-006
                   127  5.801951344319949E-004
                   128  0.000000000000000E+000
                   129  7.385487693599336E-005
                   130 -5.578584482852502E-004
                   131  0.000000000000000E+000
                   132 -2.466536901050675E-004
                   133 -8.205696399768695E-004
                   134  0.000000000000000E+000
                   135 -1.680331104563067E-005
                   136  0.000000000000000E+000
                   137  0.000000000000000E+000
                   138  1.611318201795793E-006
                   139 -5.886133647208937E-005
                   140 -1.369884710826971E-004
                   141  0.000000000000000E+000
                   142  0.000000000000000E+000
                   143 -2.453761074318656E-004
                   144  1.485903415355622E-004
                   145  0.000000000000000E+000
                   146 -8.880047585049290E-006
                   147  3.455914190346326E-005
                   148  0.000000000000000E+000
                   149  0.000000000000000E+000
                   150  5.379478015811971E-005
                   151 -3.357744747071684E-005
                   152 -4.731916370350328E-004
                   153  5.160449733211617E-004
                   154 -2.284835173766519E-004
                   155  9.749742665290595E-005
                   156  4.583631534424015E-005
                   157  6.403341339320275E-004
                   158  0.000000000000000E+000
                   159 -7.437845731296652E-005
                   160 -5.890559030300888E-004