[Molden Format]
[Atoms] AU
  N     1    7     0.0001008500   -0.0014584500   -4.3021150200        
  C     2    6     0.0004637500   -0.0015568300   -1.7726460600        
  C     3    6     0.0431491900   -2.3376197000   -0.4117228300        
  C     4    6    -0.0418311600    2.3344001600   -0.4115289200        
  C     5    6     0.0692658200   -2.2997146200    2.1658855400        
  C     6    6    -0.0672081400    2.2962945600    2.1660838900        
  C     7    6     0.0012165200   -0.0017609000    3.4740375200        
  H     8    1    -0.6613166800   -1.5219926900   -5.3183483500        
  H     9    1     0.6612267700    1.5191548500   -5.3184198000        
  H    10    1     0.1072299200   -4.0704970300   -1.4477828400        
  H    11    1    -0.1062091900    4.0673580900   -1.4474356800        
  H    12    1     0.1462970000   -4.0399035200    3.1988398000        
  H    13    1    -0.1439429000    4.0364031100    3.1991955800        
  H    14    1     0.0015073400   -0.0018397500    5.5009635000        
[5D]
[7F]
[GTO]
  1  0
   s    12 1.00
  0.114200D+05  0.172695D-04
  0.171200D+04  0.134411D-03
  0.389300D+03  0.694561D-03
  0.110000D+03  0.278531D-02
  0.355700D+02  0.863457D-02
  0.125400D+02  0.199805D-01
  0.464400D+01  0.262908D-01
  0.129300D+01 -0.243845D-01
  0.511800D+00 -0.924934D-01
  0.178700D+00 -0.339683D+00
  0.246240D-01  0.345111D+00
  0.112530D-01  0.752750D+00
   s    10 1.00
  0.114200D+05  0.523000D-03
  0.171200D+04  0.404500D-02
  0.389300D+03  0.207750D-01
  0.110000D+03  0.807269D-01
  0.355700D+02  0.233074D+00
  0.125400D+02  0.433501D+00
  0.464400D+01  0.347472D+00
  0.129300D+01  0.412620D-01
  0.511800D+00 -0.850799D-02
  0.178700D+00  0.238400D-02
   s    10 1.00
  0.114200D+05 -0.115000D-03
  0.171200D+04 -0.895000D-03
  0.389300D+03 -0.462400D-02
  0.110000D+03 -0.185280D-01
  0.355700D+02 -0.573390D-01
  0.125400D+02 -0.132076D+00
  0.464400D+01 -0.172510D+00
  0.129300D+01  0.151814D+00
  0.511800D+00  0.599944D+00
  0.178700D+00  0.387462D+00
   s     1 1.00
  0.129300D+01  0.100000D+01
   s     1 1.00
  0.178700D+00  0.100000D+01
   p     5 1.00
  0.266300D+02  0.146700D-01
  0.594800D+01  0.917640D-01
  0.174200D+01  0.298683D+00
  0.555000D+00  0.498487D+00
  0.172500D+00  0.337023D+00
   p     1 1.00
  0.174200D+01  0.100000D+01
   p     1 1.00
  0.555000D+00  0.100000D+01
   d     1 1.00
  0.165400D+01  0.100000D+01
   d     1 1.00
  0.469000D+00  0.100000D+01
   f     1 1.00
  0.109300D+01  0.100000D+01
  
  2  0
   s    10 1.00
  0.823600D+04  0.531000D-03
  0.123500D+04  0.410800D-02
  0.280800D+03  0.210870D-01
  0.792700D+02  0.818530D-01
  0.255900D+02  0.234817D+00
  0.899700D+01  0.434401D+00
  0.331900D+01  0.346129D+00
  0.905900D+00  0.393780D-01
  0.364300D+00 -0.898300D-02
  0.128500D+00  0.238500D-02
   s    10 1.00
  0.823600D+04 -0.113000D-03
  0.123500D+04 -0.878000D-03
  0.280800D+03 -0.454000D-02
  0.792700D+02 -0.181330D-01
  0.255900D+02 -0.557600D-01
  0.899700D+01 -0.126895D+00
  0.331900D+01 -0.170352D+00
  0.905900D+00  0.140382D+00
  0.364300D+00  0.598684D+00
  0.128500D+00  0.395389D+00
   s     1 1.00
  0.905900D+00  0.100000D+01
   s     1 1.00
  0.364300D+00  0.100000D+01
   p     5 1.00
  0.187100D+02  0.140310D-01
  0.413300D+01  0.868660D-01
  0.120000D+01  0.290216D+00
  0.382700D+00  0.501008D+00
  0.120900D+00  0.343406D+00
   p     1 1.00
  0.382700D+00  0.100000D+01
   p     1 1.00
  0.120900D+00  0.100000D+01
   d     1 1.00
  0.109700D+01  0.100000D+01
   d     1 1.00
  0.318000D+00  0.100000D+01
   f     1 1.00
  0.761000D+00  0.100000D+01
  
  3  0
   s    10 1.00
  0.823600D+04  0.531000D-03
  0.123500D+04  0.410800D-02
  0.280800D+03  0.210870D-01
  0.792700D+02  0.818530D-01
  0.255900D+02  0.234817D+00
  0.899700D+01  0.434401D+00
  0.331900D+01  0.346129D+00
  0.905900D+00  0.393780D-01
  0.364300D+00 -0.898300D-02
  0.128500D+00  0.238500D-02
   s    10 1.00
  0.823600D+04 -0.113000D-03
  0.123500D+04 -0.878000D-03
  0.280800D+03 -0.454000D-02
  0.792700D+02 -0.181330D-01
  0.255900D+02 -0.557600D-01
  0.899700D+01 -0.126895D+00
  0.331900D+01 -0.170352D+00
  0.905900D+00  0.140382D+00
  0.364300D+00  0.598684D+00
  0.128500D+00  0.395389D+00
   s     1 1.00
  0.905900D+00  0.100000D+01
   s     1 1.00
  0.364300D+00  0.100000D+01
   p     5 1.00
  0.187100D+02  0.140310D-01
  0.413300D+01  0.868660D-01
  0.120000D+01  0.290216D+00
  0.382700D+00  0.501008D+00
  0.120900D+00  0.343406D+00
   p     1 1.00
  0.382700D+00  0.100000D+01
   p     1 1.00
  0.120900D+00  0.100000D+01
   d     1 1.00
  0.109700D+01  0.100000D+01
   d     1 1.00
  0.318000D+00  0.100000D+01
   f     1 1.00
  0.761000D+00  0.100000D+01
  
  4  0
   s    10 1.00
  0.823600D+04  0.531000D-03
  0.123500D+04  0.410800D-02
  0.280800D+03  0.210870D-01
  0.792700D+02  0.818530D-01
  0.255900D+02  0.234817D+00
  0.899700D+01  0.434401D+00
  0.331900D+01  0.346129D+00
  0.905900D+00  0.393780D-01
  0.364300D+00 -0.898300D-02
  0.128500D+00  0.238500D-02
   s    10 1.00
  0.823600D+04 -0.113000D-03
  0.123500D+04 -0.878000D-03
  0.280800D+03 -0.454000D-02
  0.792700D+02 -0.181330D-01
  0.255900D+02 -0.557600D-01
  0.899700D+01 -0.126895D+00
  0.331900D+01 -0.170352D+00
  0.905900D+00  0.140382D+00
  0.364300D+00  0.598684D+00
  0.128500D+00  0.395389D+00
   s     1 1.00
  0.905900D+00  0.100000D+01
   s     1 1.00
  0.364300D+00  0.100000D+01
   p     5 1.00
  0.187100D+02  0.140310D-01
  0.413300D+01  0.868660D-01
  0.120000D+01  0.290216D+00
  0.382700D+00  0.501008D+00
  0.120900D+00  0.343406D+00
   p     1 1.00
  0.382700D+00  0.100000D+01
   p     1 1.00
  0.120900D+00  0.100000D+01
   d     1 1.00
  0.109700D+01  0.100000D+01
   d     1 1.00
  0.318000D+00  0.100000D+01
   f     1 1.00
  0.761000D+00  0.100000D+01
  
  5  0
   s    10 1.00
  0.823600D+04  0.531000D-03
  0.123500D+04  0.410800D-02
  0.280800D+03  0.210870D-01
  0.792700D+02  0.818530D-01
  0.255900D+02  0.234817D+00
  0.899700D+01  0.434401D+00
  0.331900D+01  0.346129D+00
  0.905900D+00  0.393780D-01
  0.364300D+00 -0.898300D-02
  0.128500D+00  0.238500D-02
   s    10 1.00
  0.823600D+04 -0.113000D-03
  0.123500D+04 -0.878000D-03
  0.280800D+03 -0.454000D-02
  0.792700D+02 -0.181330D-01
  0.255900D+02 -0.557600D-01
  0.899700D+01 -0.126895D+00
  0.331900D+01 -0.170352D+00
  0.905900D+00  0.140382D+00
  0.364300D+00  0.598684D+00
  0.128500D+00  0.395389D+00
   s     1 1.00
  0.905900D+00  0.100000D+01
   s     1 1.00
  0.364300D+00  0.100000D+01
   p     5 1.00
  0.187100D+02  0.140310D-01
  0.413300D+01  0.868660D-01
  0.120000D+01  0.290216D+00
  0.382700D+00  0.501008D+00
  0.120900D+00  0.343406D+00
   p     1 1.00
  0.382700D+00  0.100000D+01
   p     1 1.00
  0.120900D+00  0.100000D+01
   d     1 1.00
  0.109700D+01  0.100000D+01
   d     1 1.00
  0.318000D+00  0.100000D+01
   f     1 1.00
  0.761000D+00  0.100000D+01
  
  6  0
   s    10 1.00
  0.823600D+04  0.531000D-03
  0.123500D+04  0.410800D-02
  0.280800D+03  0.210870D-01
  0.792700D+02  0.818530D-01
  0.255900D+02  0.234817D+00
  0.899700D+01  0.434401D+00
  0.331900D+01  0.346129D+00
  0.905900D+00  0.393780D-01
  0.364300D+00 -0.898300D-02
  0.128500D+00  0.238500D-02
   s    10 1.00
  0.823600D+04 -0.113000D-03
  0.123500D+04 -0.878000D-03
  0.280800D+03 -0.454000D-02
  0.792700D+02 -0.181330D-01
  0.255900D+02 -0.557600D-01
  0.899700D+01 -0.126895D+00
  0.331900D+01 -0.170352D+00
  0.905900D+00  0.140382D+00
  0.364300D+00  0.598684D+00
  0.128500D+00  0.395389D+00
   s     1 1.00
  0.905900D+00  0.100000D+01
   s     1 1.00
  0.364300D+00  0.100000D+01
   p     5 1.00
  0.187100D+02  0.140310D-01
  0.413300D+01  0.868660D-01
  0.120000D+01  0.290216D+00
  0.382700D+00  0.501008D+00
  0.120900D+00  0.343406D+00
   p     1 1.00
  0.382700D+00  0.100000D+01
   p     1 1.00
  0.120900D+00  0.100000D+01
   d     1 1.00
  0.109700D+01  0.100000D+01
   d     1 1.00
  0.318000D+00  0.100000D+01
   f     1 1.00
  0.761000D+00  0.100000D+01
  
  7  0
   s    10 1.00
  0.823600D+04  0.531000D-03
  0.123500D+04  0.410800D-02
  0.280800D+03  0.210870D-01
  0.792700D+02  0.818530D-01
  0.255900D+02  0.234817D+00
  0.899700D+01  0.434401D+00
  0.331900D+01  0.346129D+00
  0.905900D+00  0.393780D-01
  0.364300D+00 -0.898300D-02
  0.128500D+00  0.238500D-02
   s    10 1.00
  0.823600D+04 -0.113000D-03
  0.123500D+04 -0.878000D-03
  0.280800D+03 -0.454000D-02
  0.792700D+02 -0.181330D-01
  0.255900D+02 -0.557600D-01
  0.899700D+01 -0.126895D+00
  0.331900D+01 -0.170352D+00
  0.905900D+00  0.140382D+00
  0.364300D+00  0.598684D+00
  0.128500D+00  0.395389D+00
   s     1 1.00
  0.905900D+00  0.100000D+01
   s     1 1.00
  0.364300D+00  0.100000D+01
   p     5 1.00
  0.187100D+02  0.140310D-01
  0.413300D+01  0.868660D-01
  0.120000D+01  0.290216D+00
  0.382700D+00  0.501008D+00
  0.120900D+00  0.343406D+00
   p     1 1.00
  0.382700D+00  0.100000D+01
   p     1 1.00
  0.120900D+00  0.100000D+01
   d     1 1.00
  0.109700D+01  0.100000D+01
   d     1 1.00
  0.318000D+00  0.100000D+01
   f     1 1.00
  0.761000D+00  0.100000D+01
  
  8  0
   s     4 1.00
  0.130100D+02  0.196850D-01
  0.196200D+01  0.137977D+00
  0.444600D+00  0.478148D+00
  0.122000D+00  0.501240D+00
   s     1 1.00
  0.122000D+00  0.100000D+01
   p     1 1.00
  0.727000D+00  0.100000D+01
  
  9  0
   s     4 1.00
  0.130100D+02  0.196850D-01
  0.196200D+01  0.137977D+00
  0.444600D+00  0.478148D+00
  0.122000D+00  0.501240D+00
   s     1 1.00
  0.122000D+00  0.100000D+01
   p     1 1.00
  0.727000D+00  0.100000D+01
  
 10  0
   s     4 1.00
  0.130100D+02  0.196850D-01
  0.196200D+01  0.137977D+00
  0.444600D+00  0.478148D+00
  0.122000D+00  0.501240D+00
   s     1 1.00
  0.122000D+00  0.100000D+01
   p     1 1.00
  0.727000D+00  0.100000D+01
  
 11  0
   s     4 1.00
  0.130100D+02  0.196850D-01
  0.196200D+01  0.137977D+00
  0.444600D+00  0.478148D+00
  0.122000D+00  0.501240D+00
   s     1 1.00
  0.122000D+00  0.100000D+01
   p     1 1.00
  0.727000D+00  0.100000D+01
  
 12  0
   s     4 1.00
  0.130100D+02  0.196850D-01
  0.196200D+01  0.137977D+00
  0.444600D+00  0.478148D+00
  0.122000D+00  0.501240D+00
   s     1 1.00
  0.122000D+00  0.100000D+01
   p     1 1.00
  0.727000D+00  0.100000D+01
  
 13  0
   s     4 1.00
  0.130100D+02  0.196850D-01
  0.196200D+01  0.137977D+00
  0.444600D+00  0.478148D+00
  0.122000D+00  0.501240D+00
   s     1 1.00
  0.122000D+00  0.100000D+01
   p     1 1.00
  0.727000D+00  0.100000D+01
  
 14  0
   s     4 1.00
  0.130100D+02  0.196850D-01
  0.196200D+01  0.137977D+00
  0.444600D+00  0.478148D+00
  0.122000D+00  0.501240D+00
   s     1 1.00
  0.122000D+00  0.100000D+01
   p     1 1.00
  0.727000D+00  0.100000D+01
  
[MO]
 Sym= __1_A__
 Ene=   1.00000000000000     
 Spin= Alpha
 Occup=    1.00000000000000     
                     1  4.357879736514273E-005
                     2  0.998041093835589     
                     3  9.115636126502940E-003
                     4  2.074789785013176E-003
                     5  1.607509341623318E-003
                     6  6.403183617863089E-007
                     7 -1.823752682195367E-007
                     8  4.431449507888574E-003
                     9 -2.329473013187988E-008
                    10  1.595028140187376E-008
                    11 -1.444055097866560E-004
                    12 -3.092552008194339E-008
                    13 -2.373926127068152E-008
                    14 -1.975550582925606E-004
                    15  2.498539301858566E-004
                    16  7.720149960778631E-008
                    17 -2.227217916577281E-008
                    18 -8.423454502240077E-005
                    19  6.398691815215972E-005
                    20  1.421917020982413E-004
                    21 -4.027353268796799E-008
                    22  1.464412002811798E-009
                    23  4.053408936979790E-004
                    24 -3.627879244978954E-004
                    25 -1.864232708973225E-004
                    26  4.651802079188930E-008
                    27 -1.265776859212935E-008
                    28  7.316741589503761E-005
                    29 -3.981546455754186E-005
                    30 -1.050973789012571E-008
                    31 -1.173328172519392E-008
                    32 -3.265565224843536E-004
                    33  2.732112981927758E-003
                    34  1.459094843903857E-004
                    35 -3.208959757535371E-004
                    36 -9.996872755490341E-007
                    37  2.879942675553162E-007
                    38 -6.935191128863008E-003
                    39  4.540937370011579E-008
                    40 -6.145537930793268E-008
                    41  2.794349566643020E-004
                    42  6.193547569325717E-007
                    43 -1.283542847287773E-007
                    44  4.351599547751184E-003
                    45  3.465291430573293E-004
                    46  6.740602200707327E-008
                    47 -1.705807856711297E-008
                    48  1.281518278607816E-004
                    49 -1.114227351789313E-005
                    50  1.690521798163611E-004
                    51  9.435363957947733E-008
                    52 -1.532680115774536E-007
                    53 -3.414829562744572E-004
                    54  9.130652144599174E-005
                    55 -1.048558657206835E-004
                    56  2.042329084975595E-008
                    57 -1.266691390700489E-008
                    58  6.997516995395178E-005
                    59 -1.773681561852395E-005
                    60 -1.152471338035197E-008
                    61 -1.017943164155919E-008
                    62 -2.085670556385724E-004
                    63 -1.662328826259115E-003
                    64  4.386652403274545E-005
                    65  6.215975962483690E-004
                    66 -2.038780689212733E-005
                    67 -8.388924698711503E-004
                    68  1.011431813881799E-003
                    69  4.519752599050528E-005
                    70 -4.793406258328605E-006
                    71  5.337674417325337E-004
                    72  2.667525414636134E-005
                    73 -6.184782372399122E-004
                    74 -1.671083897326241E-004
                    75  9.021367406419747E-005
                    76  2.388568560610222E-006
                    77 -9.892702545173439E-006
                    78  3.814764057914430E-005
                    79 -3.538865672886185E-007
                    80  2.568146561902786E-006
                    81 -3.037332438757705E-005
                    82  1.633840782189919E-004
                    83 -1.781117650498191E-005
                    84  2.666944863961931E-005
                    85 -9.038528426055392E-005
                    86  3.491664442023950E-006
                    87 -2.393005148597379E-005
                    88  2.109391095850610E-005
                    89 -6.260980275577397E-006
                    90  1.647565381180314E-006
                    91  1.512826026065046E-005
                    92 -2.085307065050090E-004
                    93 -1.662182739837400E-003
                    94  4.403234049010818E-005
                    95  6.210516298301971E-004
                    96  2.067620529359372E-005
                    97  8.388330362744233E-004
                    98  1.011599832710142E-003
                    99 -4.503775238634916E-005
                   100  4.611535847009862E-006
                   101  5.331495556379021E-004
                   102 -2.670236458354990E-005
                   103  6.179149231491813E-004
                   104 -1.668935703291243E-004
                   105  9.018344910760595E-005
                   106 -2.354386477227173E-006
                   107  9.894662408472787E-006
                   108  3.814974128804622E-005
                   109 -3.509463322860903E-007
                   110  2.088955517509072E-006
                   111  3.038769821224989E-005
                   112 -1.634981032943260E-004
                   113 -1.790459186510848E-005
                   114  2.661788116230070E-005
                   115 -9.032468985092730E-005
                   116 -3.437844559701749E-006
                   117  2.391500327949252E-005
                   118  2.108889384027684E-005
                   119 -6.245042928123745E-006
                   120 -1.654715071231009E-006
                   121 -1.513167277392304E-005
                   122 -1.506073882189401E-004
                   123 -9.571998117309623E-006
                   124  1.066641515246710E-004
                   125  1.460795159114036E-004
                   126 -2.652326679179696E-005
                   127  4.112480818720382E-005
                   128 -7.831385578784380E-004
                   129  1.048062836124789E-006
                   130  2.311291392983346E-005
                   131  3.289384463973574E-004
                   132  1.599462103581465E-005
                   133 -1.397080288258982E-004
                   134  6.901471308742823E-004
                   135 -1.533600947530530E-005
                   136  1.768537418896485E-006
                   137  2.284301038717967E-006
                   138  7.638150935347238E-007
                   139  1.405252904474100E-006
                   140 -1.813550044184155E-004
                   141 -1.603966538538657E-005
                   142  1.544709329996906E-004
                   143  1.648697730090905E-005
                   144 -7.971786505397057E-006
                   145 -3.701286824274276E-005
                   146  4.252985893474052E-007
                   147  2.366940383248008E-007
                   148 -8.968686385032456E-006
                   149 -1.295406674504898E-006
                   150 -6.658924968484161E-007
                   151 -3.259963960937845E-006
                   152 -1.510836485380282E-004
                   153 -1.125495059904687E-005
                   154  1.061838269344625E-004
                   155  1.491087639023933E-004
                   156  2.629083334907483E-005
                   157 -4.100745151681531E-005
                   158 -7.831182583518685E-004
                   159 -9.293538855987438E-007
                   160 -2.349502622907174E-005
                   161  3.285794339322507E-004
                   162 -1.581819176649348E-005
                   163  1.402040936869270E-004
                   164  6.903328492816937E-004
                   165 -1.528123347697867E-005
                   166 -1.777417472846434E-006
                   167 -2.290508292041247E-006
                   168  7.112896657525102E-007
                   169  1.400929925160618E-006
                   170 -1.812489668870592E-004
                   171  1.594565256521383E-005
                   172 -1.547033782584107E-004
                   173  1.643454166387198E-005
                   174 -8.017050793245715E-006
                   175 -3.692567213811007E-005
                   176 -3.931285225717327E-007
                   177 -2.345481857730528E-007
                   178 -9.019662034950870E-006
                   179 -1.299637455168381E-006
                   180  6.692177781310573E-007
                   181  3.269791461907782E-006
                   182 -1.258653288964700E-004
                   183 -3.383197113906558E-004
                   184  3.108865998838321E-005
                   185  1.690993832350904E-004
                   186 -1.236698731904172E-008
                   187  8.849771699632623E-008
                   188 -4.337897427922624E-005
                   189  2.050790686709683E-008
                   190 -4.344393730350229E-007
                   191  1.713946281615151E-005
                   192  7.171239547809208E-009
                   193 -4.044109480215830E-008
                   194  2.684470179129831E-005
                   195  1.868873921836442E-005
                   196  2.511241260832139E-009
                   197  2.232184766960834E-008
                   198  8.441778847445331E-006
                   199  6.691356420459405E-007
                   200  5.517827463242649E-005
                   201  1.450151319532036E-009
                   202  2.066285756362363E-007
                   203  4.384118318979252E-005
                   204 -5.661537782555777E-006
                   205 -1.170072932353810E-005
                   206  3.893105013697425E-009
                   207 -9.679334683305317E-009
                   208  3.341410074425000E-006
                   209  1.696745744082889E-006
                   210  1.769569722579383E-009
                   211  2.739094179387426E-008
                   212  3.865555300977648E-003
                   213 -2.324472913868364E-003
                   214  2.011321144305489E-004
                   215  4.232602498166335E-004
                   216  3.705811039210432E-004
                   217  3.865530832584773E-003
                   218 -2.324462560588495E-003
                   219 -2.010252507027980E-004
                   220 -4.232876147547196E-004
                   221  3.706078582799986E-004
                   222 -6.421617422336637E-004
                   223 -1.710314049423918E-004
                   224  1.896657141757122E-006
                   225 -2.073215584394996E-005
                   226 -4.320860032273060E-005
                   227 -6.422307072848536E-004
                   228 -1.706576128666732E-004
                   229 -1.909048599411963E-006
                   230  2.071735754461481E-005
                   231 -4.323306127122416E-005
                   232 -2.312548969355019E-004
                   233 -3.833454725225304E-004
                   234 -2.093835371179251E-006
                   235 -6.770693907271221E-006
                   236  4.689094473878518E-006
                   237 -2.312945036862248E-004
                   238 -3.835066990928893E-004
                   239  2.092852202098386E-006
                   240  6.816573742568289E-006
                   241  4.736240016572643E-006
                   242  6.875651338467896E-005
                   243 -1.101761432380754E-004
                   244  2.152968274728593E-009
                   245 -2.178112719117977E-008
                   246  1.485521871313950E-005
 Sym= __2_A__
 Ene=   2.00000000000000     
 Spin= Alpha
 Occup=    1.00000000000000     
                     1 -4.028442899498632E-005
                     2 -1.913035738754909E-004
                     3  2.231325053667778E-003
                     4  9.384730007181040E-005
                     5  1.261746599233591E-003
                     6  4.074146586168632E-007
                     7 -1.071766272252707E-007
                     8  2.855540178816375E-003
                     9 -7.797568726381858E-009
                    10 -1.069451219664595E-009
                    11 -6.129381449693612E-005
                    12 -6.016712322430926E-008
                    13  2.317064170978955E-008
                    14 -4.397778821557894E-004
                    15  4.396583349659315E-005
                    16  2.155123856240859E-009
                    17 -1.186213836560615E-009
                    18  5.290206738113602E-005
                    19 -2.365717603629227E-005
                    20 -2.486927621038065E-004
                    21 -1.943400931072276E-008
                    22  7.533801785824751E-009
                    23 -2.543067861395278E-004
                    24  1.289202638387636E-004
                    25  1.861321617835527E-004
                    26 -6.308516902240147E-008
                    27  2.509719263413308E-008
                    28 -1.416446546928454E-005
                    29 -2.762167072618422E-005
                    30  3.964112524047099E-009
                    31 -3.441667805442261E-009
                    32   1.00105589233842     
                    33  9.197577742983222E-003
                    34  2.622914193027304E-003
                    35 -7.773625936377550E-003
                    36 -5.727372839178699E-007
                    37  1.502263033106756E-007
                    38 -3.991385781164366E-003
                    39  1.532295692476158E-007
                    40 -4.068435284433833E-008
                    41  1.070556718971863E-003
                    42  6.244282488382487E-007
                    43 -2.365335967700250E-007
                    44  4.326894828892029E-003
                    45  4.458549368649227E-004
                    46  1.718267866748854E-007
                    47 -1.859706908190561E-008
                    48 -4.207286048273336E-004
                    49  1.582321354773581E-005
                    50  5.141668483363351E-004
                    51  1.228755211155321E-011
                    52 -5.684492747829550E-008
                    53  8.909624279099650E-004
                    54 -2.255638600658889E-005
                    55  3.714909934045532E-004
                    56 -8.513746796152518E-008
                    57  4.395973823510533E-008
                    58 -1.994535075096451E-004
                    59  1.179321479312793E-005
                    60  3.460980788729925E-008
                    61  1.322541533684356E-008
                    62  7.787218539269771E-003
                    63 -2.016141232907260E-003
                    64 -2.725729308278128E-004
                    65  2.998929959907093E-003
                    66  7.007372053543806E-006
                    67  1.157349019371794E-004
                    68 -3.089121786841593E-005
                    69 -3.323873713503370E-005
                    70  5.782307258933855E-004
                    71  5.038673162794949E-005
                    72  6.084919503118628E-005
                    73 -2.039526805716769E-003
                    74  9.644073427799928E-005
                    75 -1.628318833286268E-005
                    76  1.264003380843822E-006
                    77  1.543143717515578E-005
                    78  2.931715158027934E-005
                    79  1.994066924114110E-006
                    80  7.585248625678709E-004
                    81  2.550963986316879E-005
                    82 -4.185184502374444E-004
                    83 -1.605245676572301E-005
                    84 -1.641854432969044E-005
                    85  6.963674190984181E-005
                    86 -7.116460234422304E-007
                    87  4.177732753878120E-005
                    88 -1.245308289478401E-004
                    89  1.349411454895184E-006
                    90  1.887055308412248E-006
                    91  4.971292743987804E-005
                    92  7.787192610975680E-003
                    93 -2.016224697995005E-003
                    94 -2.726150489828465E-004
                    95  2.999127734408008E-003
                    96 -7.015595745802490E-006
                    97 -1.157332436589186E-004
                    98 -3.092109069319315E-005
                    99  3.325187660277166E-005
                   100 -5.782344273677463E-004
                   101  5.046100597473695E-005
                   102 -6.082723918703244E-005
                   103  2.039643917299588E-003
                   104  9.646154591468513E-005
                   105 -1.627086141300896E-005
                   106 -1.280525221721644E-006
                   107 -1.543810860850818E-005
                   108  2.931403634071776E-005
                   109  1.989795774237968E-006
                   110  7.586545834059470E-004
                   111 -2.513120339721737E-005
                   112  4.184695474215859E-004
                   113 -1.600854460238327E-005
                   114 -1.629579728806364E-005
                   115  6.963196757934656E-005
                   116  7.189262315358549E-007
                   117 -4.174662528667724E-005
                   118 -1.245387461043614E-004
                   119  1.347739790898748E-006
                   120 -1.843139632325460E-006
                   121 -4.969907331072166E-005
                   122 -2.237349089803676E-004
                   123 -7.504688993424651E-004
                   124  2.248538023202084E-004
                   125 -1.227065346519208E-004
                   126 -4.826021435412969E-006
                   127 -2.200177385988704E-005
                   128 -2.452132066788956E-004
                   129  9.501776141171682E-006
                   130 -1.638394056156482E-006
                   131  5.422399131417849E-004
                   132 -1.100970661207414E-005
                   133  3.156619895235694E-004
                   134  7.365686539681214E-004
                   135 -1.548210634150194E-005
                   136 -2.487764484895465E-006
                   137  5.099819022258846E-005
                   138  1.423796741962881E-005
                   139  1.627427502133730E-006
                   140 -2.944542653227195E-004
                   141  3.659334870233540E-006
                   142 -2.228978370226902E-004
                   143 -1.620462207170816E-005
                   144 -6.785442304720753E-006
                   145 -5.738315081698992E-007
                   146  2.600404788066049E-006
                   147 -3.828709092021427E-005
                   148 -3.825825238703812E-005
                   149 -2.528214188863204E-006
                   150  8.532599395648219E-007
                   151 -6.110809035647311E-006
                   152 -2.234500784069984E-004
                   153 -7.495234594614101E-004
                   154  2.249154602703746E-004
                   155 -1.237045279055715E-004
                   156  4.756193269597838E-006
                   157  2.201173772305271E-005
                   158 -2.452164654692474E-004
                   159 -9.348861333545242E-006
                   160  1.639139159164288E-006