[Molden Format]
[Atoms] AU
  N     1    7     0.0001008500   -0.0014584500   -4.3021150200        
  C     2    6     0.0004637500   -0.0015568300   -1.7726460600        
  C     3    6     0.0431491900   -2.3376197000   -0.4117228300        
  C     4    6    -0.0418311600    2.3344001600   -0.4115289200        
  C     5    6     0.0692658200   -2.2997146200    2.1658855400        
  C     6    6    -0.0672081400    2.2962945600    2.1660838900        
  C     7    6     0.0012165200   -0.0017609000    3.4740375200        
  H     8    1    -0.6613166800   -1.5219926900   -5.3183483500        
  H     9    1     0.6612267700    1.5191548500   -5.3184198000        
  H    10    1     0.1072299200   -4.0704970300   -1.4477828400        
  H    11    1    -0.1062091900    4.0673580900   -1.4474356800        
  H    12    1     0.1462970000   -4.0399035200    3.1988398000        
  H    13    1    -0.1439429000    4.0364031100    3.1991955800        
  H    14    1     0.0015073400   -0.0018397500    5.5009635000        
[5D]
[7F]
[GTO]
  1  0
   s    12 1.00
  0.114200D+05  0.172695D-04
  0.171200D+04  0.134411D-03
  0.389300D+03  0.694561D-03
  0.110000D+03  0.278531D-02
  0.355700D+02  0.863457D-02
  0.125400D+02  0.199805D-01
  0.464400D+01  0.262908D-01
  0.129300D+01 -0.243845D-01
  0.511800D+00 -0.924934D-01
  0.178700D+00 -0.339683D+00
  0.246240D-01  0.345111D+00
  0.112530D-01  0.752750D+00
   s    10 1.00
  0.114200D+05  0.523000D-03
  0.171200D+04  0.404500D-02
  0.389300D+03  0.207750D-01
  0.110000D+03  0.807269D-01
  0.355700D+02  0.233074D+00
  0.125400D+02  0.433501D+00
  0.464400D+01  0.347472D+00
  0.129300D+01  0.412620D-01
  0.511800D+00 -0.850799D-02
  0.178700D+00  0.238400D-02
   s    10 1.00
  0.114200D+05 -0.115000D-03
  0.171200D+04 -0.895000D-03
  0.389300D+03 -0.462400D-02
  0.110000D+03 -0.185280D-01
  0.355700D+02 -0.573390D-01
  0.125400D+02 -0.132076D+00
  0.464400D+01 -0.172510D+00
  0.129300D+01  0.151814D+00
  0.511800D+00  0.599944D+00
  0.178700D+00  0.387462D+00
   s     1 1.00
  0.129300D+01  0.100000D+01
   s     1 1.00
  0.178700D+00  0.100000D+01
   p     5 1.00
  0.266300D+02  0.146700D-01
  0.594800D+01  0.917640D-01
  0.174200D+01  0.298683D+00
  0.555000D+00  0.498487D+00
  0.172500D+00  0.337023D+00
   p     1 1.00
  0.174200D+01  0.100000D+01
   p     1 1.00
  0.555000D+00  0.100000D+01
   d     1 1.00
  0.165400D+01  0.100000D+01
   d     1 1.00
  0.469000D+00  0.100000D+01
   f     1 1.00
  0.109300D+01  0.100000D+01
  
  2  0
   s    10 1.00
  0.823600D+04  0.531000D-03
  0.123500D+04  0.410800D-02
  0.280800D+03  0.210870D-01
  0.792700D+02  0.818530D-01
  0.255900D+02  0.234817D+00
  0.899700D+01  0.434401D+00
  0.331900D+01  0.346129D+00
  0.905900D+00  0.393780D-01
  0.364300D+00 -0.898300D-02
  0.128500D+00  0.238500D-02
   s    10 1.00
  0.823600D+04 -0.113000D-03
  0.123500D+04 -0.878000D-03
  0.280800D+03 -0.454000D-02
  0.792700D+02 -0.181330D-01
  0.255900D+02 -0.557600D-01
  0.899700D+01 -0.126895D+00
  0.331900D+01 -0.170352D+00
  0.905900D+00  0.140382D+00
  0.364300D+00  0.598684D+00
  0.128500D+00  0.395389D+00
   s     1 1.00
  0.905900D+00  0.100000D+01
   s     1 1.00
  0.364300D+00  0.100000D+01
   p     5 1.00
  0.187100D+02  0.140310D-01
  0.413300D+01  0.868660D-01
  0.120000D+01  0.290216D+00
  0.382700D+00  0.501008D+00
  0.120900D+00  0.343406D+00
   p     1 1.00
  0.382700D+00  0.100000D+01
   p     1 1.00
  0.120900D+00  0.100000D+01
   d     1 1.00
  0.109700D+01  0.100000D+01
   d     1 1.00
  0.318000D+00  0.100000D+01
   f     1 1.00
  0.761000D+00  0.100000D+01
  
  3  0
   s    10 1.00
  0.823600D+04  0.531000D-03
  0.123500D+04  0.410800D-02
  0.280800D+03  0.210870D-01
  0.792700D+02  0.818530D-01
  0.255900D+02  0.234817D+00
  0.899700D+01  0.434401D+00
  0.331900D+01  0.346129D+00
  0.905900D+00  0.393780D-01
  0.364300D+00 -0.898300D-02
  0.128500D+00  0.238500D-02
   s    10 1.00
  0.823600D+04 -0.113000D-03
  0.123500D+04 -0.878000D-03
  0.280800D+03 -0.454000D-02
  0.792700D+02 -0.181330D-01
  0.255900D+02 -0.557600D-01
  0.899700D+01 -0.126895D+00
  0.331900D+01 -0.170352D+00
  0.905900D+00  0.140382D+00
  0.364300D+00  0.598684D+00
  0.128500D+00  0.395389D+00
   s     1 1.00
  0.905900D+00  0.100000D+01
   s     1 1.00
  0.364300D+00  0.100000D+01
   p     5 1.00
  0.187100D+02  0.140310D-01
  0.413300D+01  0.868660D-01
  0.120000D+01  0.290216D+00
  0.382700D+00  0.501008D+00
  0.120900D+00  0.343406D+00
   p     1 1.00
  0.382700D+00  0.100000D+01
   p     1 1.00
  0.120900D+00  0.100000D+01
   d     1 1.00
  0.109700D+01  0.100000D+01
   d     1 1.00
  0.318000D+00  0.100000D+01
   f     1 1.00
  0.761000D+00  0.100000D+01
  
  4  0
   s    10 1.00
  0.823600D+04  0.531000D-03
  0.123500D+04  0.410800D-02
  0.280800D+03  0.210870D-01
  0.792700D+02  0.818530D-01
  0.255900D+02  0.234817D+00
  0.899700D+01  0.434401D+00
  0.331900D+01  0.346129D+00
  0.905900D+00  0.393780D-01
  0.364300D+00 -0.898300D-02
  0.128500D+00  0.238500D-02
   s    10 1.00
  0.823600D+04 -0.113000D-03
  0.123500D+04 -0.878000D-03
  0.280800D+03 -0.454000D-02
  0.792700D+02 -0.181330D-01
  0.255900D+02 -0.557600D-01
  0.899700D+01 -0.126895D+00
  0.331900D+01 -0.170352D+00
  0.905900D+00  0.140382D+00
  0.364300D+00  0.598684D+00
  0.128500D+00  0.395389D+00
   s     1 1.00
  0.905900D+00  0.100000D+01
   s     1 1.00
  0.364300D+00  0.100000D+01
   p     5 1.00
  0.187100D+02  0.140310D-01
  0.413300D+01  0.868660D-01
  0.120000D+01  0.290216D+00
  0.382700D+00  0.501008D+00
  0.120900D+00  0.343406D+00
   p     1 1.00
  0.382700D+00  0.100000D+01
   p     1 1.00
  0.120900D+00  0.100000D+01
   d     1 1.00
  0.109700D+01  0.100000D+01
   d     1 1.00
  0.318000D+00  0.100000D+01
   f     1 1.00
  0.761000D+00  0.100000D+01
  
  5  0
   s    10 1.00
  0.823600D+04  0.531000D-03
  0.123500D+04  0.410800D-02
  0.280800D+03  0.210870D-01
  0.792700D+02  0.818530D-01
  0.255900D+02  0.234817D+00
  0.899700D+01  0.434401D+00
  0.331900D+01  0.346129D+00
  0.905900D+00  0.393780D-01
  0.364300D+00 -0.898300D-02
  0.128500D+00  0.238500D-02
   s    10 1.00
  0.823600D+04 -0.113000D-03
  0.123500D+04 -0.878000D-03
  0.280800D+03 -0.454000D-02
  0.792700D+02 -0.181330D-01
  0.255900D+02 -0.557600D-01
  0.899700D+01 -0.126895D+00
  0.331900D+01 -0.170352D+00
  0.905900D+00  0.140382D+00
  0.364300D+00  0.598684D+00
  0.128500D+00  0.395389D+00
   s     1 1.00
  0.905900D+00  0.100000D+01
   s     1 1.00
  0.364300D+00  0.100000D+01
   p     5 1.00
  0.187100D+02  0.140310D-01
  0.413300D+01  0.868660D-01
  0.120000D+01  0.290216D+00
  0.382700D+00  0.501008D+00
  0.120900D+00  0.343406D+00
   p     1 1.00
  0.382700D+00  0.100000D+01
   p     1 1.00
  0.120900D+00  0.100000D+01
   d     1 1.00
  0.109700D+01  0.100000D+01
   d     1 1.00
  0.318000D+00  0.100000D+01
   f     1 1.00
  0.761000D+00  0.100000D+01
  
  6  0
   s    10 1.00
  0.823600D+04  0.531000D-03
  0.123500D+04  0.410800D-02
  0.280800D+03  0.210870D-01
  0.792700D+02  0.818530D-01
  0.255900D+02  0.234817D+00
  0.899700D+01  0.434401D+00
  0.331900D+01  0.346129D+00
  0.905900D+00  0.393780D-01
  0.364300D+00 -0.898300D-02
  0.128500D+00  0.238500D-02
   s    10 1.00
  0.823600D+04 -0.113000D-03
  0.123500D+04 -0.878000D-03
  0.280800D+03 -0.454000D-02
  0.792700D+02 -0.181330D-01
  0.255900D+02 -0.557600D-01
  0.899700D+01 -0.126895D+00
  0.331900D+01 -0.170352D+00
  0.905900D+00  0.140382D+00
  0.364300D+00  0.598684D+00
  0.128500D+00  0.395389D+00
   s     1 1.00
  0.905900D+00  0.100000D+01
   s     1 1.00
  0.364300D+00  0.100000D+01
   p     5 1.00
  0.187100D+02  0.140310D-01
  0.413300D+01  0.868660D-01
  0.120000D+01  0.290216D+00
  0.382700D+00  0.501008D+00
  0.120900D+00  0.343406D+00
   p     1 1.00
  0.382700D+00  0.100000D+01
   p     1 1.00
  0.120900D+00  0.100000D+01
   d     1 1.00
  0.109700D+01  0.100000D+01
   d     1 1.00
  0.318000D+00  0.100000D+01
   f     1 1.00
  0.761000D+00  0.100000D+01
  
  7  0
   s    10 1.00
  0.823600D+04  0.531000D-03
  0.123500D+04  0.410800D-02
  0.280800D+03  0.210870D-01
  0.792700D+02  0.818530D-01
  0.255900D+02  0.234817D+00
  0.899700D+01  0.434401D+00
  0.331900D+01  0.346129D+00
  0.905900D+00  0.393780D-01
  0.364300D+00 -0.898300D-02
  0.128500D+00  0.238500D-02
   s    10 1.00
  0.823600D+04 -0.113000D-03
  0.123500D+04 -0.878000D-03
  0.280800D+03 -0.454000D-02
  0.792700D+02 -0.181330D-01
  0.255900D+02 -0.557600D-01
  0.899700D+01 -0.126895D+00
  0.331900D+01 -0.170352D+00
  0.905900D+00  0.140382D+00
  0.364300D+00  0.598684D+00
  0.128500D+00  0.395389D+00
   s     1 1.00
  0.905900D+00  0.100000D+01
   s     1 1.00
  0.364300D+00  0.100000D+01
   p     5 1.00
  0.187100D+02  0.140310D-01
  0.413300D+01  0.868660D-01
  0.120000D+01  0.290216D+00
  0.382700D+00  0.501008D+00
  0.120900D+00  0.343406D+00
   p     1 1.00
  0.382700D+00  0.100000D+01
   p     1 1.00
  0.120900D+00  0.100000D+01
   d     1 1.00
  0.109700D+01  0.100000D+01
   d     1 1.00
  0.318000D+00  0.100000D+01
   f     1 1.00
  0.761000D+00  0.100000D+01
  
  8  0
   s     4 1.00
  0.130100D+02  0.196850D-01
  0.196200D+01  0.137977D+00
  0.444600D+00  0.478148D+00
  0.122000D+00  0.501240D+00
   s     1 1.00
  0.122000D+00  0.100000D+01
   p     1 1.00
  0.727000D+00  0.100000D+01
  
  9  0
   s     4 1.00
  0.130100D+02  0.196850D-01
  0.196200D+01  0.137977D+00
  0.444600D+00  0.478148D+00
  0.122000D+00  0.501240D+00
   s     1 1.00
  0.122000D+00  0.100000D+01
   p     1 1.00
  0.727000D+00  0.100000D+01
  
 10  0
   s     4 1.00
  0.130100D+02  0.196850D-01
  0.196200D+01  0.137977D+00
  0.444600D+00  0.478148D+00
  0.122000D+00  0.501240D+00
   s     1 1.00
  0.122000D+00  0.100000D+01
   p     1 1.00
  0.727000D+00  0.100000D+01
  
 11  0
   s     4 1.00
  0.130100D+02  0.196850D-01
  0.196200D+01  0.137977D+00
  0.444600D+00  0.478148D+00
  0.122000D+00  0.501240D+00
   s     1 1.00
  0.122000D+00  0.100000D+01
   p     1 1.00
  0.727000D+00  0.100000D+01
  
 12  0
   s     4 1.00
  0.130100D+02  0.196850D-01
  0.196200D+01  0.137977D+00
  0.444600D+00  0.478148D+00
  0.122000D+00  0.501240D+00
   s     1 1.00
  0.122000D+00  0.100000D+01
   p     1 1.00
  0.727000D+00  0.100000D+01
  
 13  0
   s     4 1.00
  0.130100D+02  0.196850D-01
  0.196200D+01  0.137977D+00
  0.444600D+00  0.478148D+00
  0.122000D+00  0.501240D+00
   s     1 1.00
  0.122000D+00  0.100000D+01
   p     1 1.00
  0.727000D+00  0.100000D+01
  
 14  0
   s     4 1.00
  0.130100D+02  0.196850D-01
  0.196200D+01  0.137977D+00
  0.444600D+00  0.478148D+00
  0.122000D+00  0.501240D+00
   s     1 1.00
  0.122000D+00  0.100000D+01
   p     1 1.00
  0.727000D+00  0.100000D+01
  
[MO]
 Sym= __1_A__
 Ene=  0.000000000000000E+000
 Spin= Alpha
 Occup=    2.00000000000000     
                     1  4.357879735252161E-005
                     2  0.998041093835665     
                     3  9.115636125498835E-003
                     4  2.074789785047040E-003
                     5  1.607509342626658E-003
                     6  6.403183438420695E-007
                     7 -1.823752849275837E-007
                     8  4.431449507558958E-003
                     9 -2.329472230776379E-008
                    10  1.595027688564919E-008
                    11 -1.444055098845224E-004
                    12 -3.092550947240224E-008
                    13 -2.373926630979957E-008
                    14 -1.975550583605688E-004
                    15  2.498539301560869E-004
                    16  7.720149770181588E-008
                    17 -2.227218992466331E-008
                    18 -8.423454501239050E-005
                    19  6.398691814584488E-005
                    20  1.421917019103605E-004
                    21 -4.027353690505086E-008
                    22  1.464356703866443E-009
                    23  4.053408935794702E-004
                    24 -3.627879244383930E-004
                    25 -1.864232708936805E-004
                    26  4.651802122151076E-008
                    27 -1.265777788547351E-008
                    28  7.316741591369523E-005
                    29 -3.981546456457556E-005
                    30 -1.050973763431329E-008
                    31 -1.173328130086776E-008
                    32 -3.265565182375581E-004
                    33  2.732112961147479E-003
                    34  1.459094847516198E-004
                    35 -3.208959757215673E-004
                    36 -9.996873585583749E-007
                    37  2.879931076295893E-007
                    38 -6.935191137914696E-003
                    39  4.540937609219712E-008
                    40 -6.145534958589770E-008
                    41  2.794349569558563E-004
                    42  6.193547370072376E-007
                    43 -1.283541827734578E-007
                    44  4.351599548322223E-003
                    45  3.465291430640752E-004
                    46  6.740602130570889E-008
                    47 -1.705809226437164E-008
                    48  1.281518282528325E-004
                    49 -1.114227351287183E-005
                    50  1.690521801599435E-004
                    51  9.435364035532965E-008
                    52 -1.532680789490084E-007
                    53 -3.414829554243154E-004
                    54  9.130652140715901E-005
                    55 -1.048558659800596E-004
                    56  2.042328986446636E-008
                    57 -1.266689993638736E-008
                    58  6.997517026186666E-005
                    59 -1.773681560198937E-005
                    60 -1.152471433476034E-008
                    61 -1.017941457831051E-008
                    62 -2.085670550832643E-004
                    63 -1.662328827117990E-003
                    64  4.386652403496236E-005
                    65  6.215975960377618E-004
                    66 -2.038780666993619E-005
                    67 -8.388924820924295E-004
                    68  1.011431815558867E-003
                    69  4.519752596470990E-005
                    70 -4.793405109562014E-006
                    71  5.337674412145462E-004
                    72  2.667525401812152E-005
                    73 -6.184782334628917E-004
                    74 -1.671083911897092E-004
                    75  9.021367418142139E-005
                    76  2.388568547254331E-006
                    77 -9.892702185349140E-006
                    78  3.814764071548848E-005
                    79 -3.538865648045401E-007
                    80  2.568146822818370E-006
                    81 -3.037332436641350E-005
                    82  1.633840779099834E-004
                    83 -1.781117611161060E-005
                    84  2.666944865629997E-005
                    85 -9.038528420538740E-005
                    86  3.491664440396299E-006
                    87 -2.393005145538406E-005
                    88  2.109391090448692E-005
                    89 -6.260980280182849E-006
                    90  1.647565384828230E-006
                    91  1.512826034705183E-005
                    92 -2.085307057719908E-004
                    93 -1.662182739896248E-003
                    94  4.403234048216164E-005
                    95  6.210516295902979E-004
                    96  2.067620497520464E-005
                    97  8.388330490560544E-004
                    98  1.011599837474809E-003
                    99 -4.503775235903993E-005
                   100  4.611534630968642E-006
                   101  5.331495548737544E-004
                   102 -2.670236443630192E-005
                   103  6.179149192116890E-004
                   104 -1.668935725494111E-004
                   105  9.018344930901599E-005
                   106 -2.354386462099595E-006
                   107  9.894662011646613E-006
                   108  3.814974145539134E-005
                   109 -3.509463247369873E-007
                   110  2.088955820461719E-006
                   111  3.038769820116483E-005
                   112 -1.634981030265435E-004
                   113 -1.790459147129285E-005
                   114  2.661788118303131E-005
                   115 -9.032468982668412E-005
                   116 -3.437844558828345E-006
                   117  2.391500324932250E-005
                   118  2.108889377763060E-005
                   119 -6.245042933852420E-006
                   120 -1.654715076948484E-006
                   121 -1.513167286770147E-005
                   122 -1.506073881983172E-004
                   123 -9.571995943531363E-006
                   124  1.066641514421124E-004
                   125  1.460795152998449E-004
                   126 -2.652326687757950E-005
                   127  4.112480918856199E-005
                   128 -7.831385586722853E-004
                   129  1.048062831266382E-006
                   130  2.311291387665255E-005
                   131  3.289384462575816E-004
                   132  1.599462103970814E-005
                   133 -1.397080285285397E-004
                   134  6.901471293874248E-004
                   135 -1.533600946768658E-005
                   136  1.768537416431206E-006
                   137  2.284301261306131E-006
                   138  7.638150778459196E-007
                   139  1.405252905442616E-006
                   140 -1.813550043821147E-004
                   141 -1.603966537307180E-005
                   142  1.544709329729223E-004
                   143  1.648697720942533E-005
                   144 -7.971786507399653E-006
                   145 -3.701286820867370E-005
                   146  4.252985884284980E-007
                   147  2.366939486695323E-007
                   148 -8.968686372618480E-006
                   149 -1.295406673156059E-006
                   150 -6.658924989268519E-007
                   151 -3.259963980990847E-006
                   152 -1.510836486600592E-004
                   153 -1.125494722600945E-005
                   154  1.061838268312001E-004
                   155  1.491087632223148E-004
                   156  2.629083351591427E-005
                   157 -4.100745298858700E-005
                   158 -7.831182620156493E-004
                   159 -9.293538881136850E-007
                   160 -2.349502611836887E-005
                   161  3.285794340364595E-004
                   162 -1.581819177134469E-005
                   163  1.402040933137231E-004
                   164  6.903328484112256E-004
                   165 -1.528123338127964E-005
                   166 -1.777417469645984E-006
                   167 -2.290508535650087E-006
                   168  7.112896762658772E-007
                   169  1.400929927351091E-006
                   170 -1.812489667820377E-004
                   171  1.594565255614274E-005
                   172 -1.547033782268173E-004
                   173  1.643454155749394E-005
                   174 -8.017050798870240E-006
                   175 -3.692567207014672E-005
                   176 -3.931285215276928E-007
                   177 -2.345480932411032E-007
                   178 -9.019662023540986E-006
                   179 -1.299637454518533E-006
                   180  6.692177808494794E-007
                   181  3.269791482445163E-006
                   182 -1.258653285459553E-004
                   183 -3.383197082039006E-004
                   184  3.108865991301572E-005
                   185  1.690993827729501E-004
                   186 -1.236694182332794E-008
                   187  8.849737442728089E-008
                   188 -4.337897620051573E-005
                   189  2.050790615561467E-008
                   190 -4.344393690649739E-007
                   191  1.713946307662460E-005
                   192  7.171239852055424E-009
                   193 -4.044111004905708E-008
                   194  2.684470221238030E-005
                   195  1.868873921150707E-005
                   196  2.511240995489640E-009
                   197  2.232183987345995E-008
                   198  8.441778818777222E-006
                   199  6.691356414689103E-007
                   200  5.517827435796805E-005
                   201  1.450151161691596E-009
                   202  2.066285618281865E-007
                   203  4.384118301758898E-005
                   204 -5.661537787071685E-006
                   205 -1.170072935570233E-005
                   206  3.893104784592788E-009
                   207 -9.679322501862067E-009
                   208  3.341410096557910E-006
                   209  1.696745744813471E-006
                   210  1.769571009346886E-009
                   211  2.739095150982042E-008
                   212  3.865555300627634E-003
                   213 -2.324472914190087E-003
                   214  2.011321144067279E-004
                   215  4.232602497827157E-004
                   216  3.705811039088637E-004
                   217  3.865530832380959E-003
                   218 -2.324462560812058E-003
                   219 -2.010252506760773E-004
                   220 -4.232876147123824E-004
                   221  3.706078582658216E-004
                   222 -6.421617335513959E-004
                   223 -1.710314071418335E-004
                   224  1.896657121611135E-006
                   225 -2.073215545964106E-005
                   226 -4.320859999382331E-005
                   227 -6.422306991678205E-004
                   228 -1.706576148780993E-004
                   229 -1.909048582075392E-006
                   230  2.071735720689244E-005
                   231 -4.323306092505237E-005
                   232 -2.312548985727497E-004
                   233 -3.833454714421620E-004
                   234 -2.093835370229008E-006
                   235 -6.770693939951401E-006
                   236  4.689094458631957E-006
                   237 -2.312945066988753E-004
                   238 -3.835066976306549E-004
                   239  2.092852198936274E-006
                   240  6.816573851284809E-006
                   241  4.736240007932950E-006
                   242  6.875651289653541E-005
                   243 -1.101761428155255E-004
                   244  2.152969316826346E-009
                   245 -2.178113632055226E-008
                   246  1.485521872399860E-005
 Sym= __2_A__
 Ene=  0.000000000000000E+000
 Spin= Alpha
 Occup=    2.00000000000000     
                     1 -4.028442897547189E-005
                     2 -1.913035776566780E-004
                     3  2.231325053515194E-003
                     4  9.384730006159659E-005
                     5  1.261746599299617E-003
                     6  4.074146569597074E-007
                     7 -1.071766231228255E-007
                     8  2.855540178734909E-003
                     9 -7.797566609675972E-009
                    10 -1.069461344691165E-009
                    11 -6.129381450483119E-005
                    12 -6.016712340250132E-008
                    13  2.317066872489030E-008
                    14 -4.397778821833437E-004
                    15  4.396583349364422E-005
                    16  2.155122719050609E-009
                    17 -1.186218557596483E-009
                    18  5.290206738179548E-005
                    19 -2.365717603634867E-005
                    20 -2.486927621135542E-004
                    21 -1.943400773337433E-008
                    22  7.533821435589966E-009
                    23 -2.543067861785756E-004
                    24  1.289202638435778E-004
                    25  1.861321617818698E-004
                    26 -6.308516925049707E-008
                    27  2.509719667335127E-008
                    28 -1.416446547548741E-005
                    29 -2.762167072745608E-005
                    30  3.964112243141568E-009
                    31 -3.441665729778248E-009
                    32   1.00105589233982     
                    33  9.197577741707636E-003
                    34  2.622914193147941E-003
                    35 -7.773625936996840E-003
                    36 -5.727373093706780E-007
                    37  1.502258982533802E-007
                    38 -3.991385782052141E-003
                    39  1.532295676109153E-007
                    40 -4.068445777526089E-008
                    41  1.070556718921706E-003
                    42  6.244282418770223E-007
                    43 -2.365334482735457E-007
                    44  4.326894829163384E-003
                    45  4.458549368267137E-004
                    46  1.718267867452199E-007
                    47 -1.859708538534692E-008
                    48 -4.207286048221310E-004
                    49  1.582321354712751E-005
                    50  5.141668485006822E-004
                    51  1.228673513000042E-011
                    52 -5.684489647847443E-008
                    53  8.909624281283822E-004
                    54 -2.255638600805520E-005
                    55  3.714909933974760E-004
                    56 -8.513746878536921E-008
                    57  4.395973797623519E-008
                    58 -1.994535074958833E-004
                    59  1.179321479309611E-005
                    60  3.460980652289800E-008
                    61  1.322541132024577E-008
                    62  7.787218527135716E-003
                    63 -2.016141232243537E-003
                    64 -2.725729309040525E-004
                    65  2.998929960030987E-003
                    66  7.007372089710116E-006
                    67  1.157349000054609E-004
                    68 -3.089121936239076E-005
                    69 -3.323873714558116E-005
                    70  5.782307262086218E-004
                    71  5.038673170113051E-005
                    72  6.084919501691574E-005
                    73 -2.039526805328081E-003
                    74  9.644073439684163E-005
                    75 -1.628318836077722E-005
                    76  1.264003378605537E-006
                    77  1.543143722394126E-005
                    78  2.931715156210222E-005
                    79  1.994066921932999E-006
                    80  7.585248626664892E-004
                    81  2.550963987508046E-005
                    82 -4.185184504380939E-004
                    83 -1.605245670561554E-005
                    84 -1.641854432731253E-005
                    85  6.963674192435795E-005
                    86 -7.116460238613087E-007
                    87  4.177732754558203E-005
                    88 -1.245308289442315E-004
                    89  1.349411454632880E-006
                    90  1.887055308043786E-006
                    91  4.971292744534040E-005
                    92  7.787192469800011E-003
                    93 -2.016224698269971E-003
                    94 -2.726150494374249E-004
                    95  2.999127735576686E-003
                    96 -7.015595851286703E-006
                    97 -1.157332412991498E-004
                    98 -3.092109153020744E-005
                    99  3.325187663664625E-005
                   100 -5.782344278007787E-004
                   101  5.046100602504872E-005
                   102 -6.082723915866400E-005
                   103  2.039643916965476E-003
                   104  9.646154584787406E-005
                   105 -1.627086146441182E-005
                   106 -1.280525219347585E-006
                   107 -1.543810867954450E-005
                   108  2.931403637090328E-005
                   109  1.989795774659584E-006
                   110  7.586545835955709E-004
                   111 -2.513120340839832E-005
                   112  4.184695477242910E-004
                   113 -1.600854455729971E-005
                   114 -1.629579728719801E-005
                   115  6.963196761049112E-005
                   116  7.189262324350537E-007
                   117 -4.174662529979748E-005
                   118 -1.245387461245953E-004
                   119  1.347739788830983E-006
                   120 -1.843139630920072E-006
                   121 -4.969907330735547E-005
                   122 -2.237349076611036E-004
                   123 -7.504688994585541E-004
                   124  2.248538023425284E-004
                   125 -1.227065349106116E-004
                   126 -4.826021421727968E-006
                   127 -2.200177391364091E-005
                   128 -2.452132057054683E-004
                   129  9.501776136135966E-006
                   130 -1.638394000364465E-006
                   131  5.422399130955629E-004
                   132 -1.100970661873523E-005
                   133  3.156619896999636E-004
                   134  7.365686536551948E-004
                   135 -1.548210637407309E-005
                   136 -2.487764485791656E-006
                   137  5.099819025145528E-005
                   138  1.423796741021039E-005
                   139  1.627427501767750E-006
                   140 -2.944542653828215E-004
                   141  3.659334871772693E-006
                   142 -2.228978370571833E-004
                   143 -1.620462209211010E-005
                   144 -6.785442307143468E-006
                   145 -5.738315182176914E-007
                   146  2.600404788237470E-006
                   147 -3.828709093336223E-005
                   148 -3.825825238151300E-005
                   149 -2.528214188505112E-006
                   150  8.532599391382349E-007
                   151 -6.110809038034273E-006
                   152 -2.234500821983828E-004
                   153 -7.495234593232000E-004
                   154  2.249154603204094E-004
                   155 -1.237045284385697E-004
                   156  4.756193268112820E-006
                   157  2.201173759367345E-005
                   158 -2.452164650526725E-004
                   159 -9.348861336206656E-006
                   160  1.639139157159699E-006