[Molden Format]
[Atoms] AU
  N     1    7     0.0000000000   -4.2907334100    0.0000000000        
  C     2    6     0.0000000000   -1.7772236300    0.0000000000        
  C     3    6    -2.3389203600   -0.4111016300    0.0000000000        
  C     4    6     2.3389203600   -0.4111016300    0.0000000000        
  C     5    6    -2.2998668500    2.1639215300    0.0000000000        
  C     6    6     2.2998668500    2.1639215300    0.0000000000        
  C     7    6     0.0000000000    3.4755251800    0.0000000000        
  H     8    1    -2.8949410900   -6.0766690900    0.0000000000        
  H     9    1     1.7691306600   -5.3821385500    0.0000000000        
  H    10    1    -4.0745407300   -1.4447408500    0.0000000000        
  H    11    1     4.0745407300   -1.4447408500    0.0000000000        
  H    12    1    -4.0420632100    3.1963889500    0.0000000000        
  H    13    1     4.0420632100    3.1963889500    0.0000000000        
  H    14    1     0.0000000000    5.5020335600    0.0000000000        
[5D]
[7F]
[GTO]
  1  0
   s    12 1.00
  0.114200D+05  0.172695D-04
  0.171200D+04  0.134411D-03
  0.389300D+03  0.694561D-03
  0.110000D+03  0.278531D-02
  0.355700D+02  0.863457D-02
  0.125400D+02  0.199805D-01
  0.464400D+01  0.262908D-01
  0.129300D+01 -0.243845D-01
  0.511800D+00 -0.924934D-01
  0.178700D+00 -0.339683D+00
  0.246240D-01  0.345111D+00
  0.112530D-01  0.752750D+00
   s    10 1.00
  0.114200D+05  0.523000D-03
  0.171200D+04  0.404500D-02
  0.389300D+03  0.207750D-01
  0.110000D+03  0.807269D-01
  0.355700D+02  0.233074D+00
  0.125400D+02  0.433501D+00
  0.464400D+01  0.347472D+00
  0.129300D+01  0.412620D-01
  0.511800D+00 -0.850799D-02
  0.178700D+00  0.238400D-02
   s    10 1.00
  0.114200D+05 -0.115000D-03
  0.171200D+04 -0.895000D-03
  0.389300D+03 -0.462400D-02
  0.110000D+03 -0.185280D-01
  0.355700D+02 -0.573390D-01
  0.125400D+02 -0.132076D+00
  0.464400D+01 -0.172510D+00
  0.129300D+01  0.151814D+00
  0.511800D+00  0.599944D+00
  0.178700D+00  0.387462D+00
   s     1 1.00
  0.129300D+01  0.100000D+01
   s     1 1.00
  0.178700D+00  0.100000D+01
   p     5 1.00
  0.266300D+02  0.146700D-01
  0.594800D+01  0.917640D-01
  0.174200D+01  0.298683D+00
  0.555000D+00  0.498487D+00
  0.172500D+00  0.337023D+00
   p     1 1.00
  0.174200D+01  0.100000D+01
   p     1 1.00
  0.555000D+00  0.100000D+01
   d     1 1.00
  0.165400D+01  0.100000D+01
   d     1 1.00
  0.469000D+00  0.100000D+01
   f     1 1.00
  0.109300D+01  0.100000D+01
  
  2  0
   s    10 1.00
  0.823600D+04  0.531000D-03
  0.123500D+04  0.410800D-02
  0.280800D+03  0.210870D-01
  0.792700D+02  0.818530D-01
  0.255900D+02  0.234817D+00
  0.899700D+01  0.434401D+00
  0.331900D+01  0.346129D+00
  0.905900D+00  0.393780D-01
  0.364300D+00 -0.898300D-02
  0.128500D+00  0.238500D-02
   s    10 1.00
  0.823600D+04 -0.113000D-03
  0.123500D+04 -0.878000D-03
  0.280800D+03 -0.454000D-02
  0.792700D+02 -0.181330D-01
  0.255900D+02 -0.557600D-01
  0.899700D+01 -0.126895D+00
  0.331900D+01 -0.170352D+00
  0.905900D+00  0.140382D+00
  0.364300D+00  0.598684D+00
  0.128500D+00  0.395389D+00
   s     1 1.00
  0.905900D+00  0.100000D+01
   s     1 1.00
  0.364300D+00  0.100000D+01
   p     5 1.00
  0.187100D+02  0.140310D-01
  0.413300D+01  0.868660D-01
  0.120000D+01  0.290216D+00
  0.382700D+00  0.501008D+00
  0.120900D+00  0.343406D+00
   p     1 1.00
  0.382700D+00  0.100000D+01
   p     1 1.00
  0.120900D+00  0.100000D+01
   d     1 1.00
  0.109700D+01  0.100000D+01
   d     1 1.00
  0.318000D+00  0.100000D+01
   f     1 1.00
  0.761000D+00  0.100000D+01
  
  3  0
   s    10 1.00
  0.823600D+04  0.531000D-03
  0.123500D+04  0.410800D-02
  0.280800D+03  0.210870D-01
  0.792700D+02  0.818530D-01
  0.255900D+02  0.234817D+00
  0.899700D+01  0.434401D+00
  0.331900D+01  0.346129D+00
  0.905900D+00  0.393780D-01
  0.364300D+00 -0.898300D-02
  0.128500D+00  0.238500D-02
   s    10 1.00
  0.823600D+04 -0.113000D-03
  0.123500D+04 -0.878000D-03
  0.280800D+03 -0.454000D-02
  0.792700D+02 -0.181330D-01
  0.255900D+02 -0.557600D-01
  0.899700D+01 -0.126895D+00
  0.331900D+01 -0.170352D+00
  0.905900D+00  0.140382D+00
  0.364300D+00  0.598684D+00
  0.128500D+00  0.395389D+00
   s     1 1.00
  0.905900D+00  0.100000D+01
   s     1 1.00
  0.364300D+00  0.100000D+01
   p     5 1.00
  0.187100D+02  0.140310D-01
  0.413300D+01  0.868660D-01
  0.120000D+01  0.290216D+00
  0.382700D+00  0.501008D+00
  0.120900D+00  0.343406D+00
   p     1 1.00
  0.382700D+00  0.100000D+01
   p     1 1.00
  0.120900D+00  0.100000D+01
   d     1 1.00
  0.109700D+01  0.100000D+01
   d     1 1.00
  0.318000D+00  0.100000D+01
   f     1 1.00
  0.761000D+00  0.100000D+01
  
  4  0
   s    10 1.00
  0.823600D+04  0.531000D-03
  0.123500D+04  0.410800D-02
  0.280800D+03  0.210870D-01
  0.792700D+02  0.818530D-01
  0.255900D+02  0.234817D+00
  0.899700D+01  0.434401D+00
  0.331900D+01  0.346129D+00
  0.905900D+00  0.393780D-01
  0.364300D+00 -0.898300D-02
  0.128500D+00  0.238500D-02
   s    10 1.00
  0.823600D+04 -0.113000D-03
  0.123500D+04 -0.878000D-03
  0.280800D+03 -0.454000D-02
  0.792700D+02 -0.181330D-01
  0.255900D+02 -0.557600D-01
  0.899700D+01 -0.126895D+00
  0.331900D+01 -0.170352D+00
  0.905900D+00  0.140382D+00
  0.364300D+00  0.598684D+00
  0.128500D+00  0.395389D+00
   s     1 1.00
  0.905900D+00  0.100000D+01
   s     1 1.00
  0.364300D+00  0.100000D+01
   p     5 1.00
  0.187100D+02  0.140310D-01
  0.413300D+01  0.868660D-01
  0.120000D+01  0.290216D+00
  0.382700D+00  0.501008D+00
  0.120900D+00  0.343406D+00
   p     1 1.00
  0.382700D+00  0.100000D+01
   p     1 1.00
  0.120900D+00  0.100000D+01
   d     1 1.00
  0.109700D+01  0.100000D+01
   d     1 1.00
  0.318000D+00  0.100000D+01
   f     1 1.00
  0.761000D+00  0.100000D+01
  
  5  0
   s    10 1.00
  0.823600D+04  0.531000D-03
  0.123500D+04  0.410800D-02
  0.280800D+03  0.210870D-01
  0.792700D+02  0.818530D-01
  0.255900D+02  0.234817D+00
  0.899700D+01  0.434401D+00
  0.331900D+01  0.346129D+00
  0.905900D+00  0.393780D-01
  0.364300D+00 -0.898300D-02
  0.128500D+00  0.238500D-02
   s    10 1.00
  0.823600D+04 -0.113000D-03
  0.123500D+04 -0.878000D-03
  0.280800D+03 -0.454000D-02
  0.792700D+02 -0.181330D-01
  0.255900D+02 -0.557600D-01
  0.899700D+01 -0.126895D+00
  0.331900D+01 -0.170352D+00
  0.905900D+00  0.140382D+00
  0.364300D+00  0.598684D+00
  0.128500D+00  0.395389D+00
   s     1 1.00
  0.905900D+00  0.100000D+01
   s     1 1.00
  0.364300D+00  0.100000D+01
   p     5 1.00
  0.187100D+02  0.140310D-01
  0.413300D+01  0.868660D-01
  0.120000D+01  0.290216D+00
  0.382700D+00  0.501008D+00
  0.120900D+00  0.343406D+00
   p     1 1.00
  0.382700D+00  0.100000D+01
   p     1 1.00
  0.120900D+00  0.100000D+01
   d     1 1.00
  0.109700D+01  0.100000D+01
   d     1 1.00
  0.318000D+00  0.100000D+01
   f     1 1.00
  0.761000D+00  0.100000D+01
  
  6  0
   s    10 1.00
  0.823600D+04  0.531000D-03
  0.123500D+04  0.410800D-02
  0.280800D+03  0.210870D-01
  0.792700D+02  0.818530D-01
  0.255900D+02  0.234817D+00
  0.899700D+01  0.434401D+00
  0.331900D+01  0.346129D+00
  0.905900D+00  0.393780D-01
  0.364300D+00 -0.898300D-02
  0.128500D+00  0.238500D-02
   s    10 1.00
  0.823600D+04 -0.113000D-03
  0.123500D+04 -0.878000D-03
  0.280800D+03 -0.454000D-02
  0.792700D+02 -0.181330D-01
  0.255900D+02 -0.557600D-01
  0.899700D+01 -0.126895D+00
  0.331900D+01 -0.170352D+00
  0.905900D+00  0.140382D+00
  0.364300D+00  0.598684D+00
  0.128500D+00  0.395389D+00
   s     1 1.00
  0.905900D+00  0.100000D+01
   s     1 1.00
  0.364300D+00  0.100000D+01
   p     5 1.00
  0.187100D+02  0.140310D-01
  0.413300D+01  0.868660D-01
  0.120000D+01  0.290216D+00
  0.382700D+00  0.501008D+00
  0.120900D+00  0.343406D+00
   p     1 1.00
  0.382700D+00  0.100000D+01
   p     1 1.00
  0.120900D+00  0.100000D+01
   d     1 1.00
  0.109700D+01  0.100000D+01
   d     1 1.00
  0.318000D+00  0.100000D+01
   f     1 1.00
  0.761000D+00  0.100000D+01
  
  7  0
   s    10 1.00
  0.823600D+04  0.531000D-03
  0.123500D+04  0.410800D-02
  0.280800D+03  0.210870D-01
  0.792700D+02  0.818530D-01
  0.255900D+02  0.234817D+00
  0.899700D+01  0.434401D+00
  0.331900D+01  0.346129D+00
  0.905900D+00  0.393780D-01
  0.364300D+00 -0.898300D-02
  0.128500D+00  0.238500D-02
   s    10 1.00
  0.823600D+04 -0.113000D-03
  0.123500D+04 -0.878000D-03
  0.280800D+03 -0.454000D-02
  0.792700D+02 -0.181330D-01
  0.255900D+02 -0.557600D-01
  0.899700D+01 -0.126895D+00
  0.331900D+01 -0.170352D+00
  0.905900D+00  0.140382D+00
  0.364300D+00  0.598684D+00
  0.128500D+00  0.395389D+00
   s     1 1.00
  0.905900D+00  0.100000D+01
   s     1 1.00
  0.364300D+00  0.100000D+01
   p     5 1.00
  0.187100D+02  0.140310D-01
  0.413300D+01  0.868660D-01
  0.120000D+01  0.290216D+00
  0.382700D+00  0.501008D+00
  0.120900D+00  0.343406D+00
   p     1 1.00
  0.382700D+00  0.100000D+01
   p     1 1.00
  0.120900D+00  0.100000D+01
   d     1 1.00
  0.109700D+01  0.100000D+01
   d     1 1.00
  0.318000D+00  0.100000D+01
   f     1 1.00
  0.761000D+00  0.100000D+01
  
  8  0
   s     4 1.00
  0.130100D+02  0.196850D-01
  0.196200D+01  0.137977D+00
  0.444600D+00  0.478148D+00
  0.122000D+00  0.501240D+00
   s     1 1.00
  0.122000D+00  0.100000D+01
   p     1 1.00
  0.727000D+00  0.100000D+01
  
  9  0
   s     4 1.00
  0.130100D+02  0.196850D-01
  0.196200D+01  0.137977D+00
  0.444600D+00  0.478148D+00
  0.122000D+00  0.501240D+00
   s     1 1.00
  0.122000D+00  0.100000D+01
   p     1 1.00
  0.727000D+00  0.100000D+01
  
 10  0
   s     4 1.00
  0.130100D+02  0.196850D-01
  0.196200D+01  0.137977D+00
  0.444600D+00  0.478148D+00
  0.122000D+00  0.501240D+00
   s     1 1.00
  0.122000D+00  0.100000D+01
   p     1 1.00
  0.727000D+00  0.100000D+01
  
 11  0
   s     4 1.00
  0.130100D+02  0.196850D-01
  0.196200D+01  0.137977D+00
  0.444600D+00  0.478148D+00
  0.122000D+00  0.501240D+00
   s     1 1.00
  0.122000D+00  0.100000D+01
   p     1 1.00
  0.727000D+00  0.100000D+01
  
 12  0
   s     4 1.00
  0.130100D+02  0.196850D-01
  0.196200D+01  0.137977D+00
  0.444600D+00  0.478148D+00
  0.122000D+00  0.501240D+00
   s     1 1.00
  0.122000D+00  0.100000D+01
   p     1 1.00
  0.727000D+00  0.100000D+01
  
 13  0
   s     4 1.00
  0.130100D+02  0.196850D-01
  0.196200D+01  0.137977D+00
  0.444600D+00  0.478148D+00
  0.122000D+00  0.501240D+00
   s     1 1.00
  0.122000D+00  0.100000D+01
   p     1 1.00
  0.727000D+00  0.100000D+01
  
 14  0
   s     4 1.00
  0.130100D+02  0.196850D-01
  0.196200D+01  0.137977D+00
  0.444600D+00  0.478148D+00
  0.122000D+00  0.501240D+00
   s     1 1.00
  0.122000D+00  0.100000D+01
   p     1 1.00
  0.727000D+00  0.100000D+01
  
[MO]
 Sym= __1_a__
 Ene=  0.000000000000000E+000
 Spin= Alpha
 Occup=    2.00000000000000     
                     1  7.086562650773100E-005
                     2  0.998456838452139     
                     3  2.031389600354740E-003
                     4  1.656094337991040E-003
                     5  4.894385145162680E-003
                     6  3.188259096146670E-003
                     7  5.817988995635850E-003
                     8  2.401407769335910E-011
                     9 -6.701003601253810E-004
                    10 -4.459665043383810E-004
                    11 -1.369711257258540E-011
                    12 -2.402378056977240E-003
                    13 -1.382021392486450E-003
                    14 -1.363138855103960E-011
                    15 -9.312075506417318E-005
                    16  6.418109527823920E-013
                    17  8.205761013645440E-013
                    18 -2.245313522998500E-004
                    19 -8.467189154142671E-005
                    20  1.837229617651343E-004
                    21 -2.157854608235300E-012
                    22  4.676905245255090E-012
                    23 -2.287499593588720E-004
                    24  6.539643240652820E-004
                    25 -5.916494351405331E-013
                    26  9.226429603808180E-006
                    27 -5.876464618410726E-005
                    28  1.417591938353218E-012
                    29  7.033591798645320E-013
                    30  2.671526734250777E-005
                    31 -1.135013438193628E-004
                    32 -3.245505018891060E-004
                    33  1.281023380435630E-003
                    34  2.626735229887980E-004
                    35 -2.497197671161060E-004
                    36 -1.816621787160850E-004
                    37 -4.721801635016740E-003
                    38 -1.308772529954690E-011
                    39  5.259352008833030E-004
                    40  2.545087785982690E-004
                    41  1.100694264774270E-011
                    42 -2.240116629838150E-003
                    43  5.211519652414650E-003
                    44  1.298110447060110E-013
                    45 -2.285132324759582E-005
                    46 -6.850610247125730E-014
                    47  2.928958104907560E-013
                    48 -2.391318227670920E-004
                    49 -1.005382908732520E-005
                    50 -2.576100554305582E-004
                    51  3.676667038395000E-013
                    52 -1.116795459498350E-012
                    53  7.038855844583640E-005
                    54  8.992640874094080E-004
                    55  2.016045337352119E-012
                    56 -1.310103027810014E-005
                    57 -5.119537198347426E-005
                    58  3.466501779732000E-012
                    59 -1.798969758502730E-013
                    60 -1.845255657206062E-005
                    61 -1.204934548260377E-004
                    62 -4.915047814869970E-004
                    63 -2.273224729522100E-003
                    64 -9.410325066533170E-005
                    65  2.133214901450090E-003
                    66 -6.986521966524370E-004
                    67  5.130357599198300E-004
                    68 -9.640088799544461E-012
                    69  4.946823775595070E-004
                    70  7.972219843483230E-004
                    71  8.429621861125889E-012
                    72 -1.675365006405130E-003
                    73  7.498391688004650E-004
                    74 -3.087785529475300E-012
                    75 -4.138553706174931E-005
                    76 -1.894580323851730E-012
                    77 -2.323165091516910E-012
                    78 -8.776380036265280E-005
                    79 -3.324254535801890E-005
                    80 -1.415087503908094E-004
                    81  7.282626984283991E-012
                    82  5.682034405230520E-012
                    83  1.273677568214886E-004
                    84  1.130918787695610E-004
                    85  1.220670837931432E-012
                    86  1.066717987268615E-005
                    87 -4.643158733461491E-005
                    88 -1.489865347917652E-012
                    89 -3.121025132862700E-012
                    90 -1.367821987159453E-005
                    91 -1.523138535960350E-004
                    92 -1.130151403455570E-004
                    93 -9.497493207357310E-004
                    94  2.216130353537650E-004
                    95 -4.281530352905390E-004
                    96  5.541667644853080E-004
                    97  6.672194887363541E-004
                    98  6.153573921102870E-012
                    99  4.696822243697390E-004
                   100  3.034565594149830E-004
                   101  5.073167421516190E-012
                   102  4.595513683685030E-004
                   103 -1.435797254034170E-003
                   104 -1.427063336954090E-012
                   105 -6.101081282139209E-007
                   106  7.725446493107560E-013
                   107 -1.985053540915930E-012
                   108 -6.478896423655660E-005
                   109 -2.091152274268180E-005
                   110  1.411856411871826E-004
                   111  3.589243002245910E-012
                   112  8.228741269866480E-012
                   113 -1.453463313326552E-004
                   114 -6.209188125965320E-005
                   115 -6.070415553794301E-013
                   116 -2.469437221048469E-005
                   117 -2.980304238760924E-005
                   118 -4.987541335509240E-013
                   119  4.091999317129640E-013
                   120  1.434107453419263E-005
                   121 -1.936481844467277E-005
                   122 -2.594658377962970E-004
                   123 -5.071615078466030E-004
                   124  1.703789546753250E-004
                   125  3.765799357689610E-004
                   126 -7.136012390393770E-006
                   127 -5.621853333023571E-004
                   128  9.571186163814910E-012
                   129  1.728098503462420E-004
                   130  5.932622077300350E-004
                   131 -1.102274550084600E-011
                   132  3.653843910502130E-004
                   133  1.992785726543620E-003
                   134  1.158354336555820E-011
                   135  1.229093401029333E-005
                   136  1.254433533459010E-012
                   137 -5.049743052229010E-013
                   138  4.223790939383080E-005
                   139  9.682845293877990E-007
                   140  2.014544169387908E-004
                   141  3.425873534924640E-012
                   142  4.112699146080110E-012
                   143  3.533666644613840E-004
                   144  2.615090552013480E-004
                   145 -1.172964335702645E-012
                   146 -8.159957975738862E-006
                   147 -6.074534520145556E-005
                   148 -8.383356285341639E-014
                   149 -4.391969465485920E-013
                   150 -2.260621037875917E-005
                   151 -4.957405000861419E-005
                   152 -1.713975494594780E-004
                   153 -2.433752540195620E-004
                   154  3.114155377357520E-005
                   155  3.777228825374320E-004
                   156 -3.090902712856570E-005
                   157 -4.829932848130780E-004
                   158  6.861652774755270E-012
                   159  2.292583949588460E-005
                   160  3.829107153099630E-005
                   161 -1.137870074859980E-011
                   162  7.050200300454590E-004
                   163 -2.931374408320410E-004
                   164 -6.575258651841240E-013
                   165 -3.406494996249025E-006
                   166 -1.138775123607900E-012
                   167  3.329661510804850E-013
                   168 -1.018021155629144E-005
                   169  4.780993568723280E-006
                   170  5.116521987136608E-005
                   171 -1.188607660626280E-012
                   172  4.721246201349750E-012
                   173  5.131846764029000E-006
                   174 -2.646714023336870E-005
                   175 -2.594144180559105E-012
                   176  4.372264449646050E-006
                   177 -6.230374062688212E-006
                   178  1.738952069843864E-012
                   179  1.133142529980460E-012
                   180 -2.409189869118373E-005
                   181 -5.849149724877612E-006
                   182 -1.636504793551960E-004
                   183 -4.675249428579130E-004
                   184  4.638463239945730E-005
                   185  2.335059959717870E-004
                   186 -3.739192500771460E-005
                   187 -5.235939344312850E-005
                   188  5.999607412688710E-012
                   189  1.979463088469640E-004
                   190  6.310550773836609E-005
                   191 -5.482142983540400E-012
                   192  1.287642717737940E-003
                   193 -1.623602735190170E-004
                   194 -1.024651746798390E-011
                   195 -8.410162226015548E-007
                   196  1.306043944403340E-013
                   197 -1.305544932406230E-012
                   198 -1.369127265370162E-005
                   199  7.370873726660620E-006
                   200  1.594064181778262E-005
                   201  1.781255553023570E-012
                   202 -3.038083464429630E-013
                   203 -8.479513699545960E-005
                   204 -1.769425327462530E-004
                   205 -1.358403878842342E-012
                   206 -5.020964888351155E-006
                   207 -5.420194591302849E-006
                   208  8.457689867840180E-013
                   209  6.624900675925190E-013
                   210  1.092465266492452E-005
                   211 -4.848760367467433E-006
                   212 -7.846839873964240E-006
                   213  9.239405412381980E-005
                   214  7.076395581243900E-005
                   215  8.659816469934819E-005
                   216  1.116754131459630E-012
                   217  8.209293777733000E-004
                   218 -1.263895674737610E-003
                   219 -4.355430678425640E-004
                   220  2.125766098321520E-004
                   221  8.760264932106000E-013
                   222 -4.694186639364410E-004
                   223 -5.916288446468090E-004
                   224  7.692950743131091E-006
                   225 -7.392515745931809E-005
                   226  7.546124665513570E-012
                   227 -2.557578136927860E-004
                   228 -4.526502126324040E-004
                   229 -4.364668118509210E-006
                   230 -1.328642542175580E-005
                   231 -5.015155220130890E-012
                   232 -7.362653622555280E-005
                   233 -5.526693095038360E-004
                   234  5.224708955716740E-006
                   235 -1.540237965257520E-006
                   236  3.251243523829410E-012
                   237 -1.741278670594010E-004
                   238 -3.785053050898290E-004
                   239  8.735107005940340E-006
                   240  4.246758457994160E-006
                   241 -5.730623661996450E-013
                   242  1.532764521580080E-005
                   243 -2.530363205147760E-005
                   244 -7.376295985490250E-007
                   245  2.232433335003510E-005
                   246  1.169577547050560E-012
 Sym= __2_a__
 Ene=  0.000000000000000E+000
 Spin= Alpha
 Occup=    2.00000000000000     
                     1 -4.964193744578100E-005
                     2 -3.268276486191650E-004
                     3  2.833153396195100E-003
                     4  1.474102967992820E-004
                     5  1.349544265854710E-003
                     6 -3.079277475050360E-004
                     7  2.953104774749660E-003
                     8 -1.477501334665080E-011
                     9 -7.178486530298920E-005
                    10 -1.099481510472340E-004
                    11  1.080741092872960E-011
                    12  8.763726671161419E-005
                    13 -4.141293973262450E-004
                    14  1.964756932765150E-012
                    15  3.186892741186935E-005
                    16  6.501125851550100E-016
                    17  3.172933279105000E-013
                    18 -4.660504275871460E-005
                    19  1.105027941654280E-005
                    20 -1.174317383266350E-004
                    21  2.584998731044570E-012
                    22 -4.181684322433950E-012
                    23  1.491333926716502E-004
                    24 -2.342790482825650E-005
                    25 -1.176642612247575E-012
                    26 -1.858960734148269E-005
                    27  8.778446416043266E-005
                    28  3.067390094084880E-013
                    29 -9.028833010956020E-013
                    30 -1.809546543426726E-005
                    31  1.462095059207190E-004
                    32   1.00103776347257     
                    33  9.313644657213020E-003
                    34  2.710056245606080E-003
                    35 -8.136445364275650E-003
                    36 -1.235250892399360E-004
                    37 -3.585508949536330E-003
                    38 -1.076397273821860E-012
                    39  1.424910503144890E-004
                    40  4.393248268475440E-004
                    41  5.607670186328930E-012
                    42  2.928673660222500E-005
                    43  4.223981237685230E-003
                    44  9.008955241625901E-012
                    45 -5.669111710073300E-004
                    46 -9.055955555868780E-014
                    47 -4.430631626132800E-012
                    48 -1.988284210127010E-004
                    49 -6.129009890266810E-006
                    50  5.481331050345139E-004
                    51  2.272172459394210E-013
                    52 -3.690002188351770E-012
                    53 -8.956084933544260E-004
                    54  5.616615240888440E-005
                    55 -3.630481234569005E-012
                    56 -4.717338512546667E-006
                    57  9.415016906325519E-005
                    58 -1.409782822368198E-012
                    59  2.068179111087530E-012
                    60  3.434846539377908E-006
                    61  3.985127432997337E-004
                    62  9.041337225018041E-003
                    63 -2.086722601702500E-003
                    64 -2.988513733899690E-004
                    65  3.069772898146670E-003
                    66 -2.341353828597750E-005
                    67  1.217267885412460E-004
                    68  3.363143289601200E-012
                    69  7.393853393627320E-004
                    70 -7.263840908981540E-006
                    71 -1.933088509910040E-013
                    72 -2.065972690227580E-003
                    73  7.534627525729070E-005
                    74 -1.252653272237950E-013
                    75  2.598327889517928E-005
                    76 -2.210655489483370E-012
                    77  2.042585011147230E-012
                    78 -2.329127758818100E-006
                    79  6.998522737203410E-007
                    80 -4.135579348231303E-004
                    81 -4.486832616669710E-012
                    82 -1.258317697510070E-012
                    83 -5.860690227277380E-004
                    84 -3.756412629490640E-004
                    85  5.133948117332089E-013
                    86  3.280723878567517E-005
                    87 -5.926872007113435E-005
                    88 -4.999851457413560E-013
                    89  3.453921871262910E-012
                    90  5.103349589868945E-005
                    91  1.403497568096884E-004
                    92  9.779874748927419E-003
                    93 -2.064129086376960E-003
                    94 -2.816584367426660E-004
                    95  3.014434403794800E-003
                    96  1.717329876501030E-005
                    97  8.695653128016409E-005
                    98 -8.343235963578130E-012
                    99 -6.615950039629220E-004
                   100  5.170628130065830E-005
                   101  1.410121160259690E-012
                   102  2.028079646725690E-003
                   103  5.263797851588650E-005
                   104 -8.089310038476380E-013
                   105  3.086144114501555E-005
                   106  1.444556206747050E-012
                   107 -1.508716626829140E-012
                   108 -5.194610052611520E-006
                   109 -7.605001583114860E-006
                   110 -4.113310780777639E-004
                   111 -4.356660273724230E-013
                   112 -4.574691555951580E-012
                   113 -6.124928729223500E-004
                   114  3.638980891719710E-004
                   115 -4.533820804192094E-013
                   116 -3.219213185482419E-005
                   117 -5.998848158466602E-005
                   118  6.155369477676200E-013
                   119  1.301310458149530E-012
                   120 -4.896927720868159E-005
                   121  1.363187404091098E-004
                   122 -1.535428072124440E-004
                   123 -6.657767148243170E-004
                   124  2.252843790511340E-004
                   125 -1.073795143990530E-004
                   126 -2.523259614560940E-006
                   127 -3.463597252529530E-004
                   128 -2.068925892426940E-012
                   129 -6.241464928143540E-005
                   130  5.401847063049010E-004
                   131  7.768232988505510E-012
                   132  3.255327310663960E-004
                   133  7.661605212416450E-004
                   134 -1.419672199281740E-011
                   135  1.879106648289181E-005
                   136 -1.484223276288820E-012
                   137 -3.368142552000730E-012
                   138  3.813496157653180E-006
                   139  5.276120777505260E-005
                   140  1.372558557123526E-004
                   141  4.068150609283110E-012
                   142  2.927711498991480E-012
                   143  2.422412451198040E-004
                   144 -1.799801181885930E-004
                   145 -4.046523298489413E-013
                   146  7.265277302978852E-006
                   147 -3.380855478194484E-005
                   148  2.452888243062560E-013
                   149 -2.045605346872370E-013
                   150 -4.776395768656766E-005
                   151  2.873279165364632E-005
                   152 -1.351065822753060E-004
                   153 -6.734682884803480E-004
                   154  2.300888675146830E-004
                   155 -1.379611510173590E-004
                   156  1.574419638012410E-007
                   157 -3.367984569182220E-004
                   158 -3.533354304626200E-012
                   159  4.805708673480360E-005
                   160  5.646821463838850E-004