[Molden Format]
[Atoms] AU
  N     1    7     0.0000000000   -4.2907334100    0.0000000000        
  C     2    6     0.0000000000   -1.7772236300    0.0000000000        
  C     3    6    -2.3389203600   -0.4111016300    0.0000000000        
  C     4    6     2.3389203600   -0.4111016300    0.0000000000        
  C     5    6    -2.2998668500    2.1639215300    0.0000000000        
  C     6    6     2.2998668500    2.1639215300    0.0000000000        
  C     7    6     0.0000000000    3.4755251800    0.0000000000        
  H     8    1    -2.8949410900   -6.0766690900    0.0000000000        
  H     9    1     1.7691306600   -5.3821385500    0.0000000000        
  H    10    1    -4.0745407300   -1.4447408500    0.0000000000        
  H    11    1     4.0745407300   -1.4447408500    0.0000000000        
  H    12    1    -4.0420632100    3.1963889500    0.0000000000        
  H    13    1     4.0420632100    3.1963889500    0.0000000000        
  H    14    1     0.0000000000    5.5020335600    0.0000000000        
[5D]
[7F]
[GTO]
  1  0
   s    12 1.00
  0.114200D+05  0.172695D-04
  0.171200D+04  0.134411D-03
  0.389300D+03  0.694561D-03
  0.110000D+03  0.278531D-02
  0.355700D+02  0.863457D-02
  0.125400D+02  0.199805D-01
  0.464400D+01  0.262908D-01
  0.129300D+01 -0.243845D-01
  0.511800D+00 -0.924934D-01
  0.178700D+00 -0.339683D+00
  0.246240D-01  0.345111D+00
  0.112530D-01  0.752750D+00
   s    10 1.00
  0.114200D+05  0.523000D-03
  0.171200D+04  0.404500D-02
  0.389300D+03  0.207750D-01
  0.110000D+03  0.807269D-01
  0.355700D+02  0.233074D+00
  0.125400D+02  0.433501D+00
  0.464400D+01  0.347472D+00
  0.129300D+01  0.412620D-01
  0.511800D+00 -0.850799D-02
  0.178700D+00  0.238400D-02
   s    10 1.00
  0.114200D+05 -0.115000D-03
  0.171200D+04 -0.895000D-03
  0.389300D+03 -0.462400D-02
  0.110000D+03 -0.185280D-01
  0.355700D+02 -0.573390D-01
  0.125400D+02 -0.132076D+00
  0.464400D+01 -0.172510D+00
  0.129300D+01  0.151814D+00
  0.511800D+00  0.599944D+00
  0.178700D+00  0.387462D+00
   s     1 1.00
  0.129300D+01  0.100000D+01
   s     1 1.00
  0.178700D+00  0.100000D+01
   p     5 1.00
  0.266300D+02  0.146700D-01
  0.594800D+01  0.917640D-01
  0.174200D+01  0.298683D+00
  0.555000D+00  0.498487D+00
  0.172500D+00  0.337023D+00
   p     1 1.00
  0.174200D+01  0.100000D+01
   p     1 1.00
  0.555000D+00  0.100000D+01
   d     1 1.00
  0.165400D+01  0.100000D+01
   d     1 1.00
  0.469000D+00  0.100000D+01
   f     1 1.00
  0.109300D+01  0.100000D+01
  
  2  0
   s    10 1.00
  0.823600D+04  0.531000D-03
  0.123500D+04  0.410800D-02
  0.280800D+03  0.210870D-01
  0.792700D+02  0.818530D-01
  0.255900D+02  0.234817D+00
  0.899700D+01  0.434401D+00
  0.331900D+01  0.346129D+00
  0.905900D+00  0.393780D-01
  0.364300D+00 -0.898300D-02
  0.128500D+00  0.238500D-02
   s    10 1.00
  0.823600D+04 -0.113000D-03
  0.123500D+04 -0.878000D-03
  0.280800D+03 -0.454000D-02
  0.792700D+02 -0.181330D-01
  0.255900D+02 -0.557600D-01
  0.899700D+01 -0.126895D+00
  0.331900D+01 -0.170352D+00
  0.905900D+00  0.140382D+00
  0.364300D+00  0.598684D+00
  0.128500D+00  0.395389D+00
   s     1 1.00
  0.905900D+00  0.100000D+01
   s     1 1.00
  0.364300D+00  0.100000D+01
   p     5 1.00
  0.187100D+02  0.140310D-01
  0.413300D+01  0.868660D-01
  0.120000D+01  0.290216D+00
  0.382700D+00  0.501008D+00
  0.120900D+00  0.343406D+00
   p     1 1.00
  0.382700D+00  0.100000D+01
   p     1 1.00
  0.120900D+00  0.100000D+01
   d     1 1.00
  0.109700D+01  0.100000D+01
   d     1 1.00
  0.318000D+00  0.100000D+01
   f     1 1.00
  0.761000D+00  0.100000D+01
  
  3  0
   s    10 1.00
  0.823600D+04  0.531000D-03
  0.123500D+04  0.410800D-02
  0.280800D+03  0.210870D-01
  0.792700D+02  0.818530D-01
  0.255900D+02  0.234817D+00
  0.899700D+01  0.434401D+00
  0.331900D+01  0.346129D+00
  0.905900D+00  0.393780D-01
  0.364300D+00 -0.898300D-02
  0.128500D+00  0.238500D-02
   s    10 1.00
  0.823600D+04 -0.113000D-03
  0.123500D+04 -0.878000D-03
  0.280800D+03 -0.454000D-02
  0.792700D+02 -0.181330D-01
  0.255900D+02 -0.557600D-01
  0.899700D+01 -0.126895D+00
  0.331900D+01 -0.170352D+00
  0.905900D+00  0.140382D+00
  0.364300D+00  0.598684D+00
  0.128500D+00  0.395389D+00
   s     1 1.00
  0.905900D+00  0.100000D+01
   s     1 1.00
  0.364300D+00  0.100000D+01
   p     5 1.00
  0.187100D+02  0.140310D-01
  0.413300D+01  0.868660D-01
  0.120000D+01  0.290216D+00
  0.382700D+00  0.501008D+00
  0.120900D+00  0.343406D+00
   p     1 1.00
  0.382700D+00  0.100000D+01
   p     1 1.00
  0.120900D+00  0.100000D+01
   d     1 1.00
  0.109700D+01  0.100000D+01
   d     1 1.00
  0.318000D+00  0.100000D+01
   f     1 1.00
  0.761000D+00  0.100000D+01
  
  4  0
   s    10 1.00
  0.823600D+04  0.531000D-03
  0.123500D+04  0.410800D-02
  0.280800D+03  0.210870D-01
  0.792700D+02  0.818530D-01
  0.255900D+02  0.234817D+00
  0.899700D+01  0.434401D+00
  0.331900D+01  0.346129D+00
  0.905900D+00  0.393780D-01
  0.364300D+00 -0.898300D-02
  0.128500D+00  0.238500D-02
   s    10 1.00
  0.823600D+04 -0.113000D-03
  0.123500D+04 -0.878000D-03
  0.280800D+03 -0.454000D-02
  0.792700D+02 -0.181330D-01
  0.255900D+02 -0.557600D-01
  0.899700D+01 -0.126895D+00
  0.331900D+01 -0.170352D+00
  0.905900D+00  0.140382D+00
  0.364300D+00  0.598684D+00
  0.128500D+00  0.395389D+00
   s     1 1.00
  0.905900D+00  0.100000D+01
   s     1 1.00
  0.364300D+00  0.100000D+01
   p     5 1.00
  0.187100D+02  0.140310D-01
  0.413300D+01  0.868660D-01
  0.120000D+01  0.290216D+00
  0.382700D+00  0.501008D+00
  0.120900D+00  0.343406D+00
   p     1 1.00
  0.382700D+00  0.100000D+01
   p     1 1.00
  0.120900D+00  0.100000D+01
   d     1 1.00
  0.109700D+01  0.100000D+01
   d     1 1.00
  0.318000D+00  0.100000D+01
   f     1 1.00
  0.761000D+00  0.100000D+01
  
  5  0
   s    10 1.00
  0.823600D+04  0.531000D-03
  0.123500D+04  0.410800D-02
  0.280800D+03  0.210870D-01
  0.792700D+02  0.818530D-01
  0.255900D+02  0.234817D+00
  0.899700D+01  0.434401D+00
  0.331900D+01  0.346129D+00
  0.905900D+00  0.393780D-01
  0.364300D+00 -0.898300D-02
  0.128500D+00  0.238500D-02
   s    10 1.00
  0.823600D+04 -0.113000D-03
  0.123500D+04 -0.878000D-03
  0.280800D+03 -0.454000D-02
  0.792700D+02 -0.181330D-01
  0.255900D+02 -0.557600D-01
  0.899700D+01 -0.126895D+00
  0.331900D+01 -0.170352D+00
  0.905900D+00  0.140382D+00
  0.364300D+00  0.598684D+00
  0.128500D+00  0.395389D+00
   s     1 1.00
  0.905900D+00  0.100000D+01
   s     1 1.00
  0.364300D+00  0.100000D+01
   p     5 1.00
  0.187100D+02  0.140310D-01
  0.413300D+01  0.868660D-01
  0.120000D+01  0.290216D+00
  0.382700D+00  0.501008D+00
  0.120900D+00  0.343406D+00
   p     1 1.00
  0.382700D+00  0.100000D+01
   p     1 1.00
  0.120900D+00  0.100000D+01
   d     1 1.00
  0.109700D+01  0.100000D+01
   d     1 1.00
  0.318000D+00  0.100000D+01
   f     1 1.00
  0.761000D+00  0.100000D+01
  
  6  0
   s    10 1.00
  0.823600D+04  0.531000D-03
  0.123500D+04  0.410800D-02
  0.280800D+03  0.210870D-01
  0.792700D+02  0.818530D-01
  0.255900D+02  0.234817D+00
  0.899700D+01  0.434401D+00
  0.331900D+01  0.346129D+00
  0.905900D+00  0.393780D-01
  0.364300D+00 -0.898300D-02
  0.128500D+00  0.238500D-02
   s    10 1.00
  0.823600D+04 -0.113000D-03
  0.123500D+04 -0.878000D-03
  0.280800D+03 -0.454000D-02
  0.792700D+02 -0.181330D-01
  0.255900D+02 -0.557600D-01
  0.899700D+01 -0.126895D+00
  0.331900D+01 -0.170352D+00
  0.905900D+00  0.140382D+00
  0.364300D+00  0.598684D+00
  0.128500D+00  0.395389D+00
   s     1 1.00
  0.905900D+00  0.100000D+01
   s     1 1.00
  0.364300D+00  0.100000D+01
   p     5 1.00
  0.187100D+02  0.140310D-01
  0.413300D+01  0.868660D-01
  0.120000D+01  0.290216D+00
  0.382700D+00  0.501008D+00
  0.120900D+00  0.343406D+00
   p     1 1.00
  0.382700D+00  0.100000D+01
   p     1 1.00
  0.120900D+00  0.100000D+01
   d     1 1.00
  0.109700D+01  0.100000D+01
   d     1 1.00
  0.318000D+00  0.100000D+01
   f     1 1.00
  0.761000D+00  0.100000D+01
  
  7  0
   s    10 1.00
  0.823600D+04  0.531000D-03
  0.123500D+04  0.410800D-02
  0.280800D+03  0.210870D-01
  0.792700D+02  0.818530D-01
  0.255900D+02  0.234817D+00
  0.899700D+01  0.434401D+00
  0.331900D+01  0.346129D+00
  0.905900D+00  0.393780D-01
  0.364300D+00 -0.898300D-02
  0.128500D+00  0.238500D-02
   s    10 1.00
  0.823600D+04 -0.113000D-03
  0.123500D+04 -0.878000D-03
  0.280800D+03 -0.454000D-02
  0.792700D+02 -0.181330D-01
  0.255900D+02 -0.557600D-01
  0.899700D+01 -0.126895D+00
  0.331900D+01 -0.170352D+00
  0.905900D+00  0.140382D+00
  0.364300D+00  0.598684D+00
  0.128500D+00  0.395389D+00
   s     1 1.00
  0.905900D+00  0.100000D+01
   s     1 1.00
  0.364300D+00  0.100000D+01
   p     5 1.00
  0.187100D+02  0.140310D-01
  0.413300D+01  0.868660D-01
  0.120000D+01  0.290216D+00
  0.382700D+00  0.501008D+00
  0.120900D+00  0.343406D+00
   p     1 1.00
  0.382700D+00  0.100000D+01
   p     1 1.00
  0.120900D+00  0.100000D+01
   d     1 1.00
  0.109700D+01  0.100000D+01
   d     1 1.00
  0.318000D+00  0.100000D+01
   f     1 1.00
  0.761000D+00  0.100000D+01
  
  8  0
   s     4 1.00
  0.130100D+02  0.196850D-01
  0.196200D+01  0.137977D+00
  0.444600D+00  0.478148D+00
  0.122000D+00  0.501240D+00
   s     1 1.00
  0.122000D+00  0.100000D+01
   p     1 1.00
  0.727000D+00  0.100000D+01
  
  9  0
   s     4 1.00
  0.130100D+02  0.196850D-01
  0.196200D+01  0.137977D+00
  0.444600D+00  0.478148D+00
  0.122000D+00  0.501240D+00
   s     1 1.00
  0.122000D+00  0.100000D+01
   p     1 1.00
  0.727000D+00  0.100000D+01
  
 10  0
   s     4 1.00
  0.130100D+02  0.196850D-01
  0.196200D+01  0.137977D+00
  0.444600D+00  0.478148D+00
  0.122000D+00  0.501240D+00
   s     1 1.00
  0.122000D+00  0.100000D+01
   p     1 1.00
  0.727000D+00  0.100000D+01
  
 11  0
   s     4 1.00
  0.130100D+02  0.196850D-01
  0.196200D+01  0.137977D+00
  0.444600D+00  0.478148D+00
  0.122000D+00  0.501240D+00
   s     1 1.00
  0.122000D+00  0.100000D+01
   p     1 1.00
  0.727000D+00  0.100000D+01
  
 12  0
   s     4 1.00
  0.130100D+02  0.196850D-01
  0.196200D+01  0.137977D+00
  0.444600D+00  0.478148D+00
  0.122000D+00  0.501240D+00
   s     1 1.00
  0.122000D+00  0.100000D+01
   p     1 1.00
  0.727000D+00  0.100000D+01
  
 13  0
   s     4 1.00
  0.130100D+02  0.196850D-01
  0.196200D+01  0.137977D+00
  0.444600D+00  0.478148D+00
  0.122000D+00  0.501240D+00
   s     1 1.00
  0.122000D+00  0.100000D+01
   p     1 1.00
  0.727000D+00  0.100000D+01
  
 14  0
   s     4 1.00
  0.130100D+02  0.196850D-01
  0.196200D+01  0.137977D+00
  0.444600D+00  0.478148D+00
  0.122000D+00  0.501240D+00
   s     1 1.00
  0.122000D+00  0.100000D+01
   p     1 1.00
  0.727000D+00  0.100000D+01
  
[MO]
 Sym= __1_A__
 Ene=   1.00000000000000     
 Spin= Alpha
 Occup=    1.00000000000000     
                     1  7.086562650773105E-005
                     2  0.998456838452139     
                     3  2.031389600354739E-003
                     4  1.656094337991038E-003
                     5  4.894385145162682E-003
                     6  3.188259096146673E-003
                     7  5.817988995635852E-003
                     8  2.401407769335906E-011
                     9 -6.701003601253806E-004
                    10 -4.459665043383807E-004
                    11 -1.369711257258543E-011
                    12 -2.402378056977235E-003
                    13 -1.382021392486455E-003
                    14 -1.363138855103959E-011
                    15 -9.312075506417303E-005
                    16  6.418109527823919E-013
                    17  8.205761013645439E-013
                    18 -2.245313522998498E-004
                    19 -8.467189154142669E-005
                    20  1.837229617651342E-004
                    21 -2.157854608235298E-012
                    22  4.676905245255087E-012
                    23 -2.287499593588710E-004
                    24  6.539643240652818E-004
                    25 -5.916494351405336E-013
                    26  9.226429603808173E-006
                    27 -5.876464618410726E-005
                    28  1.417591938353219E-012
                    29  7.033591798645321E-013
                    30  2.671526734250781E-005
                    31 -1.135013438193629E-004
                    32 -3.245505018891058E-004
                    33  1.281023380435626E-003
                    34  2.626735229887980E-004
                    35 -2.497197671161064E-004
                    36 -1.816621787160854E-004
                    37 -4.721801635016742E-003
                    38 -1.308772529954686E-011
                    39  5.259352008833028E-004
                    40  2.545087785982694E-004
                    41  1.100694264774267E-011
                    42 -2.240116629838145E-003
                    43  5.211519652414647E-003
                    44  1.298110447060114E-013
                    45 -2.285132324759583E-005
                    46 -6.850610247125734E-014
                    47  2.928958104907565E-013
                    48 -2.391318227670920E-004
                    49 -1.005382908732524E-005
                    50 -2.576100554305582E-004
                    51  3.676667038395001E-013
                    52 -1.116795459498347E-012
                    53  7.038855844583640E-005
                    54  8.992640874094080E-004
                    55  2.016045337352118E-012
                    56 -1.310103027810011E-005
                    57 -5.119537198347425E-005
                    58  3.466501779732002E-012
                    59 -1.798969758502733E-013
                    60 -1.845255657206068E-005
                    61 -1.204934548260377E-004
                    62 -4.915047814869969E-004
                    63 -2.273224729522105E-003
                    64 -9.410325066533168E-005
                    65  2.133214901450093E-003
                    66 -6.986521966524374E-004
                    67  5.130357599198295E-004
                    68 -9.640088799544462E-012
                    69  4.946823775595067E-004
                    70  7.972219843483234E-004
                    71  8.429621861125886E-012
                    72 -1.675365006405128E-003
                    73  7.498391688004652E-004
                    74 -3.087785529475297E-012
                    75 -4.138553706174931E-005
                    76 -1.894580323851730E-012
                    77 -2.323165091516912E-012
                    78 -8.776380036265276E-005
                    79 -3.324254535801891E-005
                    80 -1.415087503908093E-004
                    81  7.282626984283994E-012
                    82  5.682034405230516E-012
                    83  1.273677568214886E-004
                    84  1.130918787695610E-004
                    85  1.220670837931432E-012
                    86  1.066717987268616E-005
                    87 -4.643158733461489E-005
                    88 -1.489865347917652E-012
                    89 -3.121025132862696E-012
                    90 -1.367821987159454E-005
                    91 -1.523138535960350E-004
                    92 -1.130151403455568E-004
                    93 -9.497493207357313E-004
                    94  2.216130353537649E-004
                    95 -4.281530352905387E-004
                    96  5.541667644853076E-004
                    97  6.672194887363537E-004
                    98  6.153573921102873E-012
                    99  4.696822243697392E-004
                   100  3.034565594149834E-004
                   101  5.073167421516186E-012
                   102  4.595513683685025E-004
                   103 -1.435797254034175E-003
                   104 -1.427063336954087E-012
                   105 -6.101081282139215E-007
                   106  7.725446493107557E-013
                   107 -1.985053540915930E-012
                   108 -6.478896423655658E-005
                   109 -2.091152274268178E-005
                   110  1.411856411871827E-004
                   111  3.589243002245907E-012
                   112  8.228741269866481E-012
                   113 -1.453463313326552E-004
                   114 -6.209188125965325E-005
                   115 -6.070415553794299E-013
                   116 -2.469437221048469E-005
                   117 -2.980304238760927E-005
                   118 -4.987541335509234E-013
                   119  4.091999317129641E-013
                   120  1.434107453419263E-005
                   121 -1.936481844467277E-005
                   122 -2.594658377962974E-004
                   123 -5.071615078466029E-004
                   124  1.703789546753254E-004
                   125  3.765799357689613E-004
                   126 -7.136012390393774E-006
                   127 -5.621853333023573E-004
                   128  9.571186163814913E-012
                   129  1.728098503462421E-004
                   130  5.932622077300350E-004
                   131 -1.102274550084596E-011
                   132  3.653843910502128E-004
                   133  1.992785726543624E-003
                   134  1.158354336555819E-011
                   135  1.229093401029332E-005
                   136  1.254433533459010E-012
                   137 -5.049743052229011E-013
                   138  4.223790939383078E-005
                   139  9.682845293877994E-007
                   140  2.014544169387908E-004
                   141  3.425873534924637E-012
                   142  4.112699146080107E-012
                   143  3.533666644613848E-004
                   144  2.615090552013481E-004
                   145 -1.172964335702646E-012
                   146 -8.159957975738869E-006
                   147 -6.074534520145554E-005
                   148 -8.383356285341646E-014
                   149 -4.391969465485918E-013
                   150 -2.260621037875914E-005
                   151 -4.957405000861439E-005
                   152 -1.713975494594779E-004
                   153 -2.433752540195619E-004
                   154  3.114155377357524E-005
                   155  3.777228825374316E-004
                   156 -3.090902712856566E-005
                   157 -4.829932848130778E-004
                   158  6.861652774755268E-012
                   159  2.292583949588458E-005
                   160  3.829107153099634E-005
                   161 -1.137870074859980E-011
                   162  7.050200300454591E-004
                   163 -2.931374408320411E-004
                   164 -6.575258651841240E-013
                   165 -3.406494996249023E-006
                   166 -1.138775123607898E-012
                   167  3.329661510804854E-013
                   168 -1.018021155629145E-005
                   169  4.780993568723279E-006
                   170  5.116521987136615E-005
                   171 -1.188607660626276E-012
                   172  4.721246201349754E-012
                   173  5.131846764028994E-006
                   174 -2.646714023336866E-005
                   175 -2.594144180559113E-012
                   176  4.372264449646049E-006
                   177 -6.230374062688215E-006
                   178  1.738952069843863E-012
                   179  1.133142529980464E-012
                   180 -2.409189869118366E-005
                   181 -5.849149724877612E-006
                   182 -1.636504793551964E-004
                   183 -4.675249428579126E-004
                   184  4.638463239945732E-005
                   185  2.335059959717867E-004
                   186 -3.739192500771458E-005
                   187 -5.235939344312850E-005
                   188  5.999607412688706E-012
                   189  1.979463088469643E-004
                   190  6.310550773836605E-005
                   191 -5.482142983540397E-012
                   192  1.287642717737944E-003
                   193 -1.623602735190169E-004
                   194 -1.024651746798389E-011
                   195 -8.410162226015548E-007
                   196  1.306043944403336E-013
                   197 -1.305544932406230E-012
                   198 -1.369127265370162E-005
                   199  7.370873726660617E-006
                   200  1.594064181778262E-005
                   201  1.781255553023572E-012
                   202 -3.038083464429628E-013
                   203 -8.479513699545966E-005
                   204 -1.769425327462526E-004
                   205 -1.358403878842343E-012
                   206 -5.020964888351156E-006
                   207 -5.420194591302847E-006
                   208  8.457689867840174E-013
                   209  6.624900675925188E-013
                   210  1.092465266492452E-005
                   211 -4.848760367467432E-006
                   212 -7.846839873964240E-006
                   213  9.239405412381982E-005
                   214  7.076395581243904E-005
                   215  8.659816469934815E-005
                   216  1.116754131459635E-012
                   217  8.209293777732998E-004
                   218 -1.263895674737608E-003
                   219 -4.355430678425644E-004
                   220  2.125766098321517E-004
                   221  8.760264932106004E-013
                   222 -4.694186639364407E-004
                   223 -5.916288446468093E-004
                   224  7.692950743131094E-006
                   225 -7.392515745931811E-005
                   226  7.546124665513565E-012
                   227 -2.557578136927863E-004
                   228 -4.526502126324037E-004
                   229 -4.364668118509205E-006
                   230 -1.328642542175576E-005
                   231 -5.015155220130892E-012
                   232 -7.362653622555276E-005
                   233 -5.526693095038364E-004
                   234  5.224708955716744E-006
                   235 -1.540237965257515E-006
                   236  3.251243523829411E-012
                   237 -1.741278670594008E-004
                   238 -3.785053050898290E-004
                   239  8.735107005940340E-006
                   240  4.246758457994160E-006
                   241 -5.730623661996452E-013
                   242  1.532764521580081E-005
                   243 -2.530363205147760E-005
                   244 -7.376295985490253E-007
                   245  2.232433335003515E-005
                   246  1.169577547050561E-012
 Sym= __2_A__
 Ene=   2.00000000000000     
 Spin= Alpha
 Occup=    1.00000000000000     
                     1 -4.964193744578100E-005
                     2 -3.268276486191653E-004
                     3  2.833153396195099E-003
                     4  1.474102967992820E-004
                     5  1.349544265854712E-003
                     6 -3.079277475050363E-004
                     7  2.953104774749660E-003
                     8 -1.477501334665075E-011
                     9 -7.178486530298922E-005
                    10 -1.099481510472341E-004
                    11  1.080741092872958E-011
                    12  8.763726671161425E-005
                    13 -4.141293973262447E-004
                    14  1.964756932765148E-012
                    15  3.186892741186937E-005
                    16  6.501125851550104E-016
                    17  3.172933279104998E-013
                    18 -4.660504275871470E-005
                    19  1.105027941654283E-005
                    20 -1.174317383266349E-004
                    21  2.584998731044567E-012
                    22 -4.181684322433954E-012
                    23  1.491333926716501E-004
                    24 -2.342790482825651E-005
                    25 -1.176642612247574E-012
                    26 -1.858960734148269E-005
                    27  8.778446416043254E-005
                    28  3.067390094084882E-013
                    29 -9.028833010956023E-013
                    30 -1.809546543426733E-005
                    31  1.462095059207191E-004
                    32   1.00103776347257     
                    33  9.313644657213021E-003
                    34  2.710056245606076E-003
                    35 -8.136445364275652E-003
                    36 -1.235250892399363E-004
                    37 -3.585508949536330E-003
                    38 -1.076397273821864E-012
                    39  1.424910503144895E-004
                    40  4.393248268475442E-004
                    41  5.607670186328931E-012
                    42  2.928673660222498E-005
                    43  4.223981237685228E-003
                    44  9.008955241625901E-012
                    45 -5.669111710073307E-004
                    46 -9.055955555868782E-014
                    47 -4.430631626132799E-012
                    48 -1.988284210127009E-004
                    49 -6.129009890266810E-006
                    50  5.481331050345125E-004
                    51  2.272172459394213E-013
                    52 -3.690002188351769E-012
                    53 -8.956084933544252E-004
                    54  5.616615240888435E-005
                    55 -3.630481234569005E-012
                    56 -4.717338512546670E-006
                    57  9.415016906325513E-005
                    58 -1.409782822368198E-012
                    59  2.068179111087527E-012
                    60  3.434846539377906E-006
                    61  3.985127432997339E-004
                    62  9.041337225018041E-003
                    63 -2.086722601702503E-003
                    64 -2.988513733899688E-004
                    65  3.069772898146674E-003
                    66 -2.341353828597750E-005
                    67  1.217267885412461E-004
                    68  3.363143289601203E-012
                    69  7.393853393627316E-004
                    70 -7.263840908981540E-006
                    71 -1.933088509910044E-013
                    72 -2.065972690227584E-003
                    73  7.534627525729071E-005
                    74 -1.252653272237950E-013
                    75  2.598327889517929E-005
                    76 -2.210655489483372E-012
                    77  2.042585011147231E-012
                    78 -2.329127758818094E-006
                    79  6.998522737203406E-007
                    80 -4.135579348231289E-004
                    81 -4.486832616669708E-012
                    82 -1.258317697510069E-012
                    83 -5.860690227277372E-004
                    84 -3.756412629490638E-004
                    85  5.133948117332084E-013
                    86  3.280723878567516E-005
                    87 -5.926872007113435E-005
                    88 -4.999851457413558E-013
                    89  3.453921871262915E-012
                    90  5.103349589868945E-005
                    91  1.403497568096883E-004
                    92  9.779874748927419E-003
                    93 -2.064129086376956E-003
                    94 -2.816584367426663E-004
                    95  3.014434403794799E-003
                    96  1.717329876501032E-005
                    97  8.695653128016415E-005
                    98 -8.343235963578129E-012
                    99 -6.615950039629221E-004
                   100  5.170628130065827E-005
                   101  1.410121160259691E-012
                   102  2.028079646725689E-003
                   103  5.263797851588649E-005
                   104 -8.089310038476382E-013
                   105  3.086144114501553E-005
                   106  1.444556206747047E-012
                   107 -1.508716626829136E-012
                   108 -5.194610052611518E-006
                   109 -7.605001583114859E-006
                   110 -4.113310780777646E-004
                   111 -4.356660273724226E-013
                   112 -4.574691555951576E-012
                   113 -6.124928729223504E-004
                   114  3.638980891719711E-004
                   115 -4.533820804192092E-013
                   116 -3.219213185482418E-005
                   117 -5.998848158466605E-005
                   118  6.155369477676202E-013
                   119  1.301310458149526E-012
                   120 -4.896927720868161E-005
                   121  1.363187404091096E-004
                   122 -1.535428072124436E-004
                   123 -6.657767148243168E-004
                   124  2.252843790511338E-004
                   125 -1.073795143990525E-004
                   126 -2.523259614560937E-006
                   127 -3.463597252529529E-004
                   128 -2.068925892426936E-012
                   129 -6.241464928143538E-005
                   130  5.401847063049007E-004
                   131  7.768232988505515E-012
                   132  3.255327310663960E-004
                   133  7.661605212416454E-004
                   134 -1.419672199281739E-011
                   135  1.879106648289180E-005
                   136 -1.484223276288820E-012
                   137 -3.368142552000732E-012
                   138  3.813496157653184E-006
                   139  5.276120777505260E-005
                   140  1.372558557123527E-004
                   141  4.068150609283110E-012
                   142  2.927711498991484E-012
                   143  2.422412451198042E-004
                   144 -1.799801181885930E-004
                   145 -4.046523298489405E-013
                   146  7.265277302978845E-006
                   147 -3.380855478194482E-005
                   148  2.452888243062556E-013
                   149 -2.045605346872371E-013
                   150 -4.776395768656761E-005
                   151  2.873279165364632E-005
                   152 -1.351065822753064E-004
                   153 -6.734682884803478E-004
                   154  2.300888675146834E-004
                   155 -1.379611510173585E-004
                   156  1.574419638012406E-007
                   157 -3.367984569182219E-004
                   158 -3.533354304626200E-012
                   159  4.805708673480362E-005
                   160  5.646821463838853E-004