[Molden Format]
[Atoms] AU
  N     1    7    -0.0038794800   -0.0013650500   -4.3283267800        
  C     2    6    -0.0022367700   -0.0024411200   -1.7674001400        
  C     3    6     0.0732913100   -2.3361033400   -0.4136208000        
  C     4    6    -0.0760267400    2.3300825400   -0.4115643300        
  C     5    6     0.1182514400   -2.2997348800    2.1707960800        
  C     6    6    -0.1176711800    2.2915421800    2.1728766200        
  C     7    6     0.0011263900   -0.0046441300    3.4754986700        
  H     8    1    -1.0544268300   -1.2939339500   -5.3405922200        
  H     9    1     1.0453691000    1.2920546500   -5.3408525100        
  H    10    1     0.1628931200   -4.0667731900   -1.4513445600        
  H    11    1    -0.1669588800    4.0616238100   -1.4477175100        
  H    12    1     0.2425786200   -4.0374737900    3.2033359400        
  H    13    1    -0.2406726000    4.0284126900    3.2070351300        
  H    14    1     0.0024270600   -0.0054961100    5.5031025800        
[5D]
[7F]
[GTO]
  1  0
   s    12 1.00
  0.114200D+05  0.172695D-04
  0.171200D+04  0.134411D-03
  0.389300D+03  0.694561D-03
  0.110000D+03  0.278531D-02
  0.355700D+02  0.863457D-02
  0.125400D+02  0.199805D-01
  0.464400D+01  0.262908D-01
  0.129300D+01 -0.243845D-01
  0.511800D+00 -0.924934D-01
  0.178700D+00 -0.339683D+00
  0.246240D-01  0.345111D+00
  0.112530D-01  0.752750D+00
   s    10 1.00
  0.114200D+05  0.523000D-03
  0.171200D+04  0.404500D-02
  0.389300D+03  0.207750D-01
  0.110000D+03  0.807269D-01
  0.355700D+02  0.233074D+00
  0.125400D+02  0.433501D+00
  0.464400D+01  0.347472D+00
  0.129300D+01  0.412620D-01
  0.511800D+00 -0.850799D-02
  0.178700D+00  0.238400D-02
   s    10 1.00
  0.114200D+05 -0.115000D-03
  0.171200D+04 -0.895000D-03
  0.389300D+03 -0.462400D-02
  0.110000D+03 -0.185280D-01
  0.355700D+02 -0.573390D-01
  0.125400D+02 -0.132076D+00
  0.464400D+01 -0.172510D+00
  0.129300D+01  0.151814D+00
  0.511800D+00  0.599944D+00
  0.178700D+00  0.387462D+00
   s     1 1.00
  0.129300D+01  0.100000D+01
   s     1 1.00
  0.178700D+00  0.100000D+01
   p     5 1.00
  0.266300D+02  0.146700D-01
  0.594800D+01  0.917640D-01
  0.174200D+01  0.298683D+00
  0.555000D+00  0.498487D+00
  0.172500D+00  0.337023D+00
   p     1 1.00
  0.174200D+01  0.100000D+01
   p     1 1.00
  0.555000D+00  0.100000D+01
   d     1 1.00
  0.165400D+01  0.100000D+01
   d     1 1.00
  0.469000D+00  0.100000D+01
   f     1 1.00
  0.109300D+01  0.100000D+01
  
  2  0
   s    10 1.00
  0.823600D+04  0.531000D-03
  0.123500D+04  0.410800D-02
  0.280800D+03  0.210870D-01
  0.792700D+02  0.818530D-01
  0.255900D+02  0.234817D+00
  0.899700D+01  0.434401D+00
  0.331900D+01  0.346129D+00
  0.905900D+00  0.393780D-01
  0.364300D+00 -0.898300D-02
  0.128500D+00  0.238500D-02
   s    10 1.00
  0.823600D+04 -0.113000D-03
  0.123500D+04 -0.878000D-03
  0.280800D+03 -0.454000D-02
  0.792700D+02 -0.181330D-01
  0.255900D+02 -0.557600D-01
  0.899700D+01 -0.126895D+00
  0.331900D+01 -0.170352D+00
  0.905900D+00  0.140382D+00
  0.364300D+00  0.598684D+00
  0.128500D+00  0.395389D+00
   s     1 1.00
  0.905900D+00  0.100000D+01
   s     1 1.00
  0.364300D+00  0.100000D+01
   p     5 1.00
  0.187100D+02  0.140310D-01
  0.413300D+01  0.868660D-01
  0.120000D+01  0.290216D+00
  0.382700D+00  0.501008D+00
  0.120900D+00  0.343406D+00
   p     1 1.00
  0.382700D+00  0.100000D+01
   p     1 1.00
  0.120900D+00  0.100000D+01
   d     1 1.00
  0.109700D+01  0.100000D+01
   d     1 1.00
  0.318000D+00  0.100000D+01
   f     1 1.00
  0.761000D+00  0.100000D+01
  
  3  0
   s    10 1.00
  0.823600D+04  0.531000D-03
  0.123500D+04  0.410800D-02
  0.280800D+03  0.210870D-01
  0.792700D+02  0.818530D-01
  0.255900D+02  0.234817D+00
  0.899700D+01  0.434401D+00
  0.331900D+01  0.346129D+00
  0.905900D+00  0.393780D-01
  0.364300D+00 -0.898300D-02
  0.128500D+00  0.238500D-02
   s    10 1.00
  0.823600D+04 -0.113000D-03
  0.123500D+04 -0.878000D-03
  0.280800D+03 -0.454000D-02
  0.792700D+02 -0.181330D-01
  0.255900D+02 -0.557600D-01
  0.899700D+01 -0.126895D+00
  0.331900D+01 -0.170352D+00
  0.905900D+00  0.140382D+00
  0.364300D+00  0.598684D+00
  0.128500D+00  0.395389D+00
   s     1 1.00
  0.905900D+00  0.100000D+01
   s     1 1.00
  0.364300D+00  0.100000D+01
   p     5 1.00
  0.187100D+02  0.140310D-01
  0.413300D+01  0.868660D-01
  0.120000D+01  0.290216D+00
  0.382700D+00  0.501008D+00
  0.120900D+00  0.343406D+00
   p     1 1.00
  0.382700D+00  0.100000D+01
   p     1 1.00
  0.120900D+00  0.100000D+01
   d     1 1.00
  0.109700D+01  0.100000D+01
   d     1 1.00
  0.318000D+00  0.100000D+01
   f     1 1.00
  0.761000D+00  0.100000D+01
  
  4  0
   s    10 1.00
  0.823600D+04  0.531000D-03
  0.123500D+04  0.410800D-02
  0.280800D+03  0.210870D-01
  0.792700D+02  0.818530D-01
  0.255900D+02  0.234817D+00
  0.899700D+01  0.434401D+00
  0.331900D+01  0.346129D+00
  0.905900D+00  0.393780D-01
  0.364300D+00 -0.898300D-02
  0.128500D+00  0.238500D-02
   s    10 1.00
  0.823600D+04 -0.113000D-03
  0.123500D+04 -0.878000D-03
  0.280800D+03 -0.454000D-02
  0.792700D+02 -0.181330D-01
  0.255900D+02 -0.557600D-01
  0.899700D+01 -0.126895D+00
  0.331900D+01 -0.170352D+00
  0.905900D+00  0.140382D+00
  0.364300D+00  0.598684D+00
  0.128500D+00  0.395389D+00
   s     1 1.00
  0.905900D+00  0.100000D+01
   s     1 1.00
  0.364300D+00  0.100000D+01
   p     5 1.00
  0.187100D+02  0.140310D-01
  0.413300D+01  0.868660D-01
  0.120000D+01  0.290216D+00
  0.382700D+00  0.501008D+00
  0.120900D+00  0.343406D+00
   p     1 1.00
  0.382700D+00  0.100000D+01
   p     1 1.00
  0.120900D+00  0.100000D+01
   d     1 1.00
  0.109700D+01  0.100000D+01
   d     1 1.00
  0.318000D+00  0.100000D+01
   f     1 1.00
  0.761000D+00  0.100000D+01
  
  5  0
   s    10 1.00
  0.823600D+04  0.531000D-03
  0.123500D+04  0.410800D-02
  0.280800D+03  0.210870D-01
  0.792700D+02  0.818530D-01
  0.255900D+02  0.234817D+00
  0.899700D+01  0.434401D+00
  0.331900D+01  0.346129D+00
  0.905900D+00  0.393780D-01
  0.364300D+00 -0.898300D-02
  0.128500D+00  0.238500D-02
   s    10 1.00
  0.823600D+04 -0.113000D-03
  0.123500D+04 -0.878000D-03
  0.280800D+03 -0.454000D-02
  0.792700D+02 -0.181330D-01
  0.255900D+02 -0.557600D-01
  0.899700D+01 -0.126895D+00
  0.331900D+01 -0.170352D+00
  0.905900D+00  0.140382D+00
  0.364300D+00  0.598684D+00
  0.128500D+00  0.395389D+00
   s     1 1.00
  0.905900D+00  0.100000D+01
   s     1 1.00
  0.364300D+00  0.100000D+01
   p     5 1.00
  0.187100D+02  0.140310D-01
  0.413300D+01  0.868660D-01
  0.120000D+01  0.290216D+00
  0.382700D+00  0.501008D+00
  0.120900D+00  0.343406D+00
   p     1 1.00
  0.382700D+00  0.100000D+01
   p     1 1.00
  0.120900D+00  0.100000D+01
   d     1 1.00
  0.109700D+01  0.100000D+01
   d     1 1.00
  0.318000D+00  0.100000D+01
   f     1 1.00
  0.761000D+00  0.100000D+01
  
  6  0
   s    10 1.00
  0.823600D+04  0.531000D-03
  0.123500D+04  0.410800D-02
  0.280800D+03  0.210870D-01
  0.792700D+02  0.818530D-01
  0.255900D+02  0.234817D+00
  0.899700D+01  0.434401D+00
  0.331900D+01  0.346129D+00
  0.905900D+00  0.393780D-01
  0.364300D+00 -0.898300D-02
  0.128500D+00  0.238500D-02
   s    10 1.00
  0.823600D+04 -0.113000D-03
  0.123500D+04 -0.878000D-03
  0.280800D+03 -0.454000D-02
  0.792700D+02 -0.181330D-01
  0.255900D+02 -0.557600D-01
  0.899700D+01 -0.126895D+00
  0.331900D+01 -0.170352D+00
  0.905900D+00  0.140382D+00
  0.364300D+00  0.598684D+00
  0.128500D+00  0.395389D+00
   s     1 1.00
  0.905900D+00  0.100000D+01
   s     1 1.00
  0.364300D+00  0.100000D+01
   p     5 1.00
  0.187100D+02  0.140310D-01
  0.413300D+01  0.868660D-01
  0.120000D+01  0.290216D+00
  0.382700D+00  0.501008D+00
  0.120900D+00  0.343406D+00
   p     1 1.00
  0.382700D+00  0.100000D+01
   p     1 1.00
  0.120900D+00  0.100000D+01
   d     1 1.00
  0.109700D+01  0.100000D+01
   d     1 1.00
  0.318000D+00  0.100000D+01
   f     1 1.00
  0.761000D+00  0.100000D+01
  
  7  0
   s    10 1.00
  0.823600D+04  0.531000D-03
  0.123500D+04  0.410800D-02
  0.280800D+03  0.210870D-01
  0.792700D+02  0.818530D-01
  0.255900D+02  0.234817D+00
  0.899700D+01  0.434401D+00
  0.331900D+01  0.346129D+00
  0.905900D+00  0.393780D-01
  0.364300D+00 -0.898300D-02
  0.128500D+00  0.238500D-02
   s    10 1.00
  0.823600D+04 -0.113000D-03
  0.123500D+04 -0.878000D-03
  0.280800D+03 -0.454000D-02
  0.792700D+02 -0.181330D-01
  0.255900D+02 -0.557600D-01
  0.899700D+01 -0.126895D+00
  0.331900D+01 -0.170352D+00
  0.905900D+00  0.140382D+00
  0.364300D+00  0.598684D+00
  0.128500D+00  0.395389D+00
   s     1 1.00
  0.905900D+00  0.100000D+01
   s     1 1.00
  0.364300D+00  0.100000D+01
   p     5 1.00
  0.187100D+02  0.140310D-01
  0.413300D+01  0.868660D-01
  0.120000D+01  0.290216D+00
  0.382700D+00  0.501008D+00
  0.120900D+00  0.343406D+00
   p     1 1.00
  0.382700D+00  0.100000D+01
   p     1 1.00
  0.120900D+00  0.100000D+01
   d     1 1.00
  0.109700D+01  0.100000D+01
   d     1 1.00
  0.318000D+00  0.100000D+01
   f     1 1.00
  0.761000D+00  0.100000D+01
  
  8  0
   s     4 1.00
  0.130100D+02  0.196850D-01
  0.196200D+01  0.137977D+00
  0.444600D+00  0.478148D+00
  0.122000D+00  0.501240D+00
   s     1 1.00
  0.122000D+00  0.100000D+01
   p     1 1.00
  0.727000D+00  0.100000D+01
  
  9  0
   s     4 1.00
  0.130100D+02  0.196850D-01
  0.196200D+01  0.137977D+00
  0.444600D+00  0.478148D+00
  0.122000D+00  0.501240D+00
   s     1 1.00
  0.122000D+00  0.100000D+01
   p     1 1.00
  0.727000D+00  0.100000D+01
  
 10  0
   s     4 1.00
  0.130100D+02  0.196850D-01
  0.196200D+01  0.137977D+00
  0.444600D+00  0.478148D+00
  0.122000D+00  0.501240D+00
   s     1 1.00
  0.122000D+00  0.100000D+01
   p     1 1.00
  0.727000D+00  0.100000D+01
  
 11  0
   s     4 1.00
  0.130100D+02  0.196850D-01
  0.196200D+01  0.137977D+00
  0.444600D+00  0.478148D+00
  0.122000D+00  0.501240D+00
   s     1 1.00
  0.122000D+00  0.100000D+01
   p     1 1.00
  0.727000D+00  0.100000D+01
  
 12  0
   s     4 1.00
  0.130100D+02  0.196850D-01
  0.196200D+01  0.137977D+00
  0.444600D+00  0.478148D+00
  0.122000D+00  0.501240D+00
   s     1 1.00
  0.122000D+00  0.100000D+01
   p     1 1.00
  0.727000D+00  0.100000D+01
  
 13  0
   s     4 1.00
  0.130100D+02  0.196850D-01
  0.196200D+01  0.137977D+00
  0.444600D+00  0.478148D+00
  0.122000D+00  0.501240D+00
   s     1 1.00
  0.122000D+00  0.100000D+01
   p     1 1.00
  0.727000D+00  0.100000D+01
  
 14  0
   s     4 1.00
  0.130100D+02  0.196850D-01
  0.196200D+01  0.137977D+00
  0.444600D+00  0.478148D+00
  0.122000D+00  0.501240D+00
   s     1 1.00
  0.122000D+00  0.100000D+01
   p     1 1.00
  0.727000D+00  0.100000D+01
  
[MO]
 Sym= __1_A__
 Ene=  0.000000000000000E+000
 Spin= Alpha
 Occup=    2.00000000000000     
                     1  4.749807652035907E-005
                     2  0.997969288782423     
                     3  9.551760826124418E-003
                     4  2.099369665766911E-003
                     5  1.575965468682108E-003
                     6  2.762301067728262E-006
                     7 -1.813853567860089E-006
                     8  4.293564009098924E-003
                     9 -1.274458097034478E-007
                    10  9.051628456823499E-008
                    11 -1.924692070733501E-004
                    12 -2.363305251093975E-007
                    13  1.238795101391630E-007
                    14 -3.646385366815026E-004
                    15  2.178119531545959E-004
                    16  3.037212379065199E-007
                    17 -1.961110819274646E-007
                    18 -3.940353267326302E-005
                    19  8.501585230731748E-005
                    20  1.137484255242804E-004
                    21 -1.772776063234410E-007
                    22  1.429371849471900E-007
                    23  1.472020269346781E-004
                    24 -4.861500731951595E-004
                    25 -1.818602308671780E-004
                    26  2.025558690569576E-007
                    27 -1.582376584370267E-007
                    28  4.401823377307706E-005
                    29 -5.752526759490307E-005
                    30 -4.291398380657619E-009
                    31 -6.866971815840178E-008
                    32 -2.681609988026459E-004
                    33  2.805821101131709E-003
                    34  1.375989190307736E-004
                    35 -4.300096967007880E-004
                    36 -4.370331641032840E-006
                    37  2.877803794742051E-006
                    38 -6.805828578194171E-003
                    39  8.075712975392534E-008
                    40 -9.941442403574443E-008
                    41  1.144370637187975E-004
                    42  2.711942329871257E-006
                    43 -1.737707234876749E-006
                    44  4.238953724362437E-003
                    45  3.536499086542083E-004
                    46  3.136842522334286E-007
                    47 -2.874830194857930E-007
                    48  1.149059905306639E-004
                    49 -1.353771983126604E-005
                    50  3.584705198453792E-004
                    51  5.592749483507034E-007
                    52 -3.994811707386515E-007
                    53 -1.758937505367159E-004
                    54  1.147934458892759E-004
                    55 -8.799957120811871E-005
                    56  6.482554812898122E-008
                    57 -1.100748072291929E-007
                    58  5.878854458073400E-005
                    59 -2.201406872945073E-005
                    60 -3.502785505402267E-008
                    61 -5.131276453940308E-008
                    62 -2.050278726310056E-004
                    63 -1.666086863506869E-003
                    64  2.425050388795140E-005
                    65  7.081944643033871E-004
                    66 -1.761981201948748E-005
                    67 -8.515810226771877E-004
                    68  1.048694942547139E-003
                    69  5.687689518638891E-005
                    70  3.927876186279343E-005
                    71  3.895331435592050E-004
                    72  4.123052832151896E-005
                    73 -6.718073458454361E-004
                    74 -2.185174069597073E-004
                    75  8.899139671888181E-005
                    76  2.829014545569834E-006
                    77 -1.153781281149762E-005
                    78  3.442581534650364E-005
                    79 -9.806550426115887E-008
                    80  3.090434190620126E-005
                    81 -3.228222494552348E-005
                    82  9.502291778088745E-005
                    83 -1.770918339300603E-007
                    84  3.442294568593127E-005
                    85 -8.449547705858865E-005
                    86  5.447879488885023E-006
                    87 -1.527295207485970E-005
                    88  2.148331770277106E-005
                    89 -7.240308599738211E-006
                    90  2.235806435331764E-006
                    91  1.857238404098694E-005
                    92 -2.049918344412807E-004
                    93 -1.665942372198695E-003
                    94  2.441351838945057E-005
                    95  7.076647973921077E-004
                    96  1.896325289321374E-005
                    97  8.507184780026813E-004
                    98  1.049495151962279E-003
                    99 -5.636474762257481E-005
                   100 -3.974377606607042E-005
                   101  3.889564970367580E-004
                   102 -4.147950557881347E-005
                   103  6.714246638422278E-004
                   104 -2.177386588671093E-004
                   105  8.898231336138980E-005
                   106 -2.675045987165469E-006
                   107  1.139620675765364E-005
                   108  3.443380912488114E-005
                   109 -8.130317981109391E-008
                   110  3.025889175095475E-005
                   111  3.239089309815508E-005
                   112 -9.521668137873050E-005
                   113 -3.030864578617302E-007
                   114  3.426996052940479E-005
                   115 -8.447631431369863E-005
                   116 -5.233859472677482E-006
                   117  1.508757949160950E-005
                   118  2.146568939482814E-005
                   119 -7.176264639594665E-006
                   120 -2.262475474276531E-006
                   121 -1.860482382109354E-005
                   122 -1.547742178390645E-004
                   123 -1.977680141199575E-005
                   124  9.688898939577588E-005
                   125  1.902885376114319E-004
                   126 -4.211592968103077E-005
                   127  4.308643661934731E-005
                   128 -7.846966679358570E-004
                   129 -8.176690338916709E-007
                   130  2.584056884768234E-005
                   131  2.867694763695586E-004
                   132  2.023779418601411E-005
                   133 -9.561488347472693E-005
                   134  6.591143715877439E-004
                   135 -1.061911154929291E-005
                   136  2.159031131762532E-006
                   137  3.470893295851430E-006
                   138 -4.174524615193724E-007
                   139  1.767461143562084E-006
                   140 -1.652831157649367E-004
                   141 -1.849492295299981E-005
                   142  1.335097722876281E-004
                   143  2.300043500495312E-005
                   144 -9.036692108079419E-006
                   145 -3.272330193930685E-005
                   146  8.833129268752897E-008
                   147 -1.995822426303317E-006
                   148 -8.588721336667890E-006
                   149 -1.624494229529969E-006
                   150 -8.531690649912303E-007
                   151 -2.787048077624637E-006
                   152 -1.552471592946139E-004
                   153 -2.145001563191260E-005
                   154  9.640713812176783E-005
                   155  1.933067821479332E-004
                   156  4.109950154385967E-005
                   157 -4.236869121441839E-005
                   158 -7.847561510379539E-004
                   159  1.222885529538231E-006
                   160 -2.644980382747506E-005
                   161  2.864060332061308E-004
                   162 -1.942681064044142E-005
                   163  9.559641106462301E-005
                   164  6.593917958484351E-004
                   165 -1.056600306671915E-005
                   166 -2.182295885586894E-006
                   167 -3.465781237328830E-006
                   168 -4.751404943262068E-007
                   169  1.758487386071394E-006
                   170 -1.653910013202421E-004
                   171  1.809487624538334E-005
                   172 -1.335342498422067E-004
                   173  2.286258137572040E-005
                   174 -9.224568261714608E-006
                   175 -3.264030797006258E-005
                   176  3.284525577959375E-008
                   177  1.950047080451142E-006
                   178 -8.633699716704523E-006
                   179 -1.629595071108865E-006
                   180  8.689084130252701E-007
                   181  2.803162605158124E-006
                   182 -1.304906270838369E-004
                   183 -3.522038250431483E-004
                   184  2.966390895939596E-005
                   185  1.988029208352322E-004
                   186 -3.710335314817336E-008
                   187  1.072856775235053E-007
                   188 -4.534348672499297E-005
                   189  3.782856066080130E-008
                   190 -4.492780104414832E-007
                   191  1.516368943342064E-005
                   192 -2.809126097804293E-009
                   193 -3.772739117316516E-008
                   194 -1.169635407760842E-005
                   195  1.861304553412563E-005
                   196  1.458212766835125E-008
                   197  6.823635101546731E-009
                   198  7.790095743385556E-006
                   199  1.097136480272925E-006
                   200  4.880073609007848E-005
                   201  1.876500253093952E-008
                   202  1.682222091849022E-007
                   203  3.609962732789370E-005
                   204 -4.986924339894569E-006
                   205 -1.138159810964676E-005
                   206  1.682877629523999E-008
                   207 -2.348787727997839E-008
                   208  3.025551864855582E-006
                   209  2.099851304733336E-006
                   210  7.447572885315162E-010
                   211  2.770002333827910E-008
                   212  4.175036968046817E-003
                   213 -2.461020900771185E-003
                   214  3.244879671005520E-004
                   215  3.722296405069593E-004
                   216  3.715520346526912E-004
                   217  4.175008220517883E-003
                   218 -2.461009706980277E-003
                   219 -3.240091293290362E-004
                   220 -3.725408929367217E-004
                   221  3.716546785446134E-004
                   222 -6.256831670553417E-004
                   223 -2.230409766282425E-004
                   224  3.068341215211929E-006
                   225 -2.654267412421964E-005
                   226 -4.216810303052924E-005
                   227 -6.257498412883364E-004
                   228 -2.226724471952388E-004
                   229 -3.122225813283072E-006
                   230  2.656012597243945E-005
                   231 -4.216806300505597E-005
                   232 -2.370664261345131E-004
                   233 -3.407469989827392E-004
                   234 -2.768685621833221E-006
                   235 -9.247143874815786E-006
                   236  2.629387261665478E-006
                   237 -2.371073339258408E-004
                   238 -3.409022586222866E-004
                   239  2.768578706453070E-006
                   240  9.290770136826598E-006
                   241  2.681310898394154E-006
                   242  7.550177885020400E-005
                   243 -7.888087277382172E-005
                   244  1.010702718185520E-008
                   245 -2.812583463651551E-008
                   246  1.516760644343651E-005
 Sym= __2_A__
 Ene=  0.000000000000000E+000
 Spin= Alpha
 Occup=    2.00000000000000     
                     1 -3.052022269063260E-005
                     2 -1.460120879009133E-004
                     3  2.084415581271665E-003
                     4  7.496294757445596E-005
                     5  1.232631356815036E-003
                     6  1.640604869951494E-006
                     7 -1.076282708635985E-006
                     8  2.566369169363505E-003
                     9 -4.787828867356632E-008
                    10  3.052893150709074E-008
                    11 -7.849259756316516E-005
                    12 -1.723654869367159E-007
                    13  1.207208696226233E-007
                    14 -2.744359438134576E-004
                    15  4.759361314584228E-005
                    16  1.720968828216289E-008
                    17 -2.985750592502720E-008
                    18  3.539093480936616E-005
                    19 -3.000450650066979E-005
                    20 -1.920453319280864E-004
                    21 -5.253814578300959E-008
                    22  1.098537834580076E-007
                    23 -1.519270682569054E-004
                    24  1.473977286261992E-004
                    25  1.931446590472178E-004
                    26 -2.936016727819330E-007
                    27  2.518478090304237E-007
                    28 -3.035401529927066E-005
                    29 -3.273901369978080E-005
                    30  4.065516403298886E-008
                    31 -9.418499644274565E-009
                    32   1.00106350599616     
                    33  9.042136691192464E-003
                    34  2.584573210122389E-003
                    35 -7.793782001970532E-003
                    36 -2.358939056053528E-006
                    37  1.539607585143301E-006
                    38 -3.677565745013080E-003
                    39  7.427708124098356E-007
                    40 -4.834650364143835E-007
                    41  1.158999901374745E-003
                    42  2.619380062901716E-006
                    43 -1.780607708910180E-006
                    44  4.074922166430366E-003
                    45  3.887864875941558E-004
                    46  6.976091996387909E-007
                    47 -1.260191158598872E-007
                    48 -4.039128222667486E-004
                    49  1.556296171124532E-005
                    50  4.220113526900942E-004
                    51 -6.679419352870167E-008
                    52 -6.384626253064553E-007
                    53  8.314829172998434E-004
                    54 -7.681108607670962E-006
                    55  3.409016772631863E-004
                    56 -3.376640806517326E-007
                    57  4.620082182715419E-007
                    58 -1.873275640913208E-004
                    59  1.281194974034460E-005
                    60  1.407389034664283E-007
                    61  1.082311486537755E-007
                    62  8.817541215041668E-003
                    63 -1.928707611785154E-003
                    64 -2.703118985486744E-004
                    65  2.933659339019452E-003
                    66  4.037043910640851E-006
                    67  1.584978357704997E-004
                    68 -7.196001695508695E-005
                    69 -3.952217004190394E-005
                    70  5.463727946058668E-004
                    71  8.661546252136021E-005
                    72  8.732251875874880E-005
                    73 -1.948262831673936E-003
                    74  1.108340419590627E-004
                    75 -1.954935530133035E-005
                    76  1.876955599866874E-006
                    77  1.658972435686829E-005
                    78  2.784895056041146E-005
                    79  2.639865192914602E-006
                    80  7.535856567726111E-004
                    81  3.457130984731576E-005
                    82 -4.168862107801762E-004
                    83 -2.228421693375078E-005
                    84 -2.029164309787513E-005
                    85  6.246734661742958E-005
                    86 -1.252778815581661E-006
                    87  3.548410645519996E-005
                    88 -1.190476374883973E-004
                    89 -5.284217037657188E-007
                    90  4.199358661584888E-006
                    91  4.925517702413618E-005
                    92  8.817515341403299E-003
                    93 -1.928790072640151E-003
                    94 -2.703573836843735E-004
                    95  2.933862217156453E-003
                    96 -4.128606175087143E-006
                    97 -1.584386558398219E-004
                    98 -7.211361130124127E-005
                    99  3.963056632186682E-005
                   100 -5.464405166382972E-004
                   101  8.624787907959901E-005
                   102 -8.718811909030848E-005
                   103  1.948307104500115E-003
                   104  1.124278727978464E-004
                   105 -1.955515242715088E-005
                   106 -1.954178540518336E-006
                   107 -1.659430177220315E-005
                   108  2.783104141737792E-005
                   109  2.620307935248276E-006
                   110  7.543396563753444E-004
                   111 -3.288772986611196E-005
                   112  4.158811402322719E-004
                   113 -2.195652536534638E-005
                   114 -1.972806910058654E-005
                   115  6.252911632261736E-005
                   116  1.296584010285190E-006
                   117 -3.519400191543880E-005
                   118 -1.191468466824420E-004
                   119 -5.285379799550843E-007
                   120 -4.011331515842450E-006
                   121 -4.913226619646205E-005
                   122 -2.093010794337031E-004
                   123 -7.488601469078236E-004
                   124  2.263710704676614E-004
                   125 -1.441762618322138E-004
                   126 -7.398868888280106E-006
                   127 -2.786458830643865E-005
                   128 -2.234369504354584E-004
                   129  1.654511939017898E-005
                   130  9.363086376377820E-006
                   131  5.493881857699697E-004
                   132 -1.204129503142330E-005
                   133  3.050155191805336E-004
                   134  7.015393427552171E-004
                   135 -1.829168415096135E-005
                   136 -3.514508436173390E-006
                   137  4.930992122466718E-005
                   138  1.463234493421750E-005
                   139  2.948960419884261E-006
                   140 -2.994638666722100E-004
                   141  4.049655279399162E-007
                   142 -2.320568947625247E-004
                   143 -1.999723712459274E-005
                   144 -1.350521874951127E-005
                   145 -3.600465296139048E-006
                   146  4.622898606595213E-006
                   147 -3.352757844087197E-005
                   148 -3.529399732446004E-005
                   149 -4.148387099514383E-006
                   150  8.377949058657145E-007
                   151 -6.596174477046452E-006
                   152 -2.090111605606145E-004
                   153 -7.478971864182373E-004
                   154  2.264475393996946E-004
                   155 -1.452383062333135E-004
                   156  7.113551759986354E-006
                   157  2.804106194680398E-005
                   158 -2.234269826992154E-004
                   159 -1.584619498878366E-005
                   160 -9.767571064649437E-006