[Molden Format]
[Atoms] AU
  N     1    7    -0.0009555500    0.0029204500   -4.3902467400        
  C     2    6    -0.0031462600   -0.0004528800   -1.7482478400        
  C     3    6     0.1659433500   -2.3185746200   -0.4079818500        
  C     4    6    -0.1744632000    2.3142391500   -0.4023488900        
  C     5    6     0.2094924900   -2.2995183900    2.1793864200        
  C     6    6    -0.2223030400    2.2885759400    2.1848865000        
  C     7    6    -0.0074791700   -0.0071248600    3.4772608500        
  H     8    1    -1.6269727800   -0.3530100800   -5.3974815700        
  H     9    1     1.6267290400    0.3614184700   -5.3938714500        
  H    10    1     0.2998188500   -4.0344301200   -1.4651138300        
  H    11    1    -0.3065890400    4.0327888400   -1.4553163600        
  H    12    1     0.3893775900   -4.0282627300    3.2176983100        
  H    13    1    -0.4039134400    4.0146635800    3.2273098000        
  H    14    1    -0.0091614700   -0.0097153300    5.5061241000        
[5D]
[7F]
[GTO]
  1  0
   s    12 1.00
  0.114200D+05  0.172695D-04
  0.171200D+04  0.134411D-03
  0.389300D+03  0.694561D-03
  0.110000D+03  0.278531D-02
  0.355700D+02  0.863457D-02
  0.125400D+02  0.199805D-01
  0.464400D+01  0.262908D-01
  0.129300D+01 -0.243845D-01
  0.511800D+00 -0.924934D-01
  0.178700D+00 -0.339683D+00
  0.246240D-01  0.345111D+00
  0.112530D-01  0.752750D+00
   s    10 1.00
  0.114200D+05  0.523000D-03
  0.171200D+04  0.404500D-02
  0.389300D+03  0.207750D-01
  0.110000D+03  0.807269D-01
  0.355700D+02  0.233074D+00
  0.125400D+02  0.433501D+00
  0.464400D+01  0.347472D+00
  0.129300D+01  0.412620D-01
  0.511800D+00 -0.850799D-02
  0.178700D+00  0.238400D-02
   s    10 1.00
  0.114200D+05 -0.115000D-03
  0.171200D+04 -0.895000D-03
  0.389300D+03 -0.462400D-02
  0.110000D+03 -0.185280D-01
  0.355700D+02 -0.573390D-01
  0.125400D+02 -0.132076D+00
  0.464400D+01 -0.172510D+00
  0.129300D+01  0.151814D+00
  0.511800D+00  0.599944D+00
  0.178700D+00  0.387462D+00
   s     1 1.00
  0.129300D+01  0.100000D+01
   s     1 1.00
  0.178700D+00  0.100000D+01
   p     5 1.00
  0.266300D+02  0.146700D-01
  0.594800D+01  0.917640D-01
  0.174200D+01  0.298683D+00
  0.555000D+00  0.498487D+00
  0.172500D+00  0.337023D+00
   p     1 1.00
  0.174200D+01  0.100000D+01
   p     1 1.00
  0.555000D+00  0.100000D+01
   d     1 1.00
  0.165400D+01  0.100000D+01
   d     1 1.00
  0.469000D+00  0.100000D+01
   f     1 1.00
  0.109300D+01  0.100000D+01
  
  2  0
   s    10 1.00
  0.823600D+04  0.531000D-03
  0.123500D+04  0.410800D-02
  0.280800D+03  0.210870D-01
  0.792700D+02  0.818530D-01
  0.255900D+02  0.234817D+00
  0.899700D+01  0.434401D+00
  0.331900D+01  0.346129D+00
  0.905900D+00  0.393780D-01
  0.364300D+00 -0.898300D-02
  0.128500D+00  0.238500D-02
   s    10 1.00
  0.823600D+04 -0.113000D-03
  0.123500D+04 -0.878000D-03
  0.280800D+03 -0.454000D-02
  0.792700D+02 -0.181330D-01
  0.255900D+02 -0.557600D-01
  0.899700D+01 -0.126895D+00
  0.331900D+01 -0.170352D+00
  0.905900D+00  0.140382D+00
  0.364300D+00  0.598684D+00
  0.128500D+00  0.395389D+00
   s     1 1.00
  0.905900D+00  0.100000D+01
   s     1 1.00
  0.364300D+00  0.100000D+01
   p     5 1.00
  0.187100D+02  0.140310D-01
  0.413300D+01  0.868660D-01
  0.120000D+01  0.290216D+00
  0.382700D+00  0.501008D+00
  0.120900D+00  0.343406D+00
   p     1 1.00
  0.382700D+00  0.100000D+01
   p     1 1.00
  0.120900D+00  0.100000D+01
   d     1 1.00
  0.109700D+01  0.100000D+01
   d     1 1.00
  0.318000D+00  0.100000D+01
   f     1 1.00
  0.761000D+00  0.100000D+01
  
  3  0
   s    10 1.00
  0.823600D+04  0.531000D-03
  0.123500D+04  0.410800D-02
  0.280800D+03  0.210870D-01
  0.792700D+02  0.818530D-01
  0.255900D+02  0.234817D+00
  0.899700D+01  0.434401D+00
  0.331900D+01  0.346129D+00
  0.905900D+00  0.393780D-01
  0.364300D+00 -0.898300D-02
  0.128500D+00  0.238500D-02
   s    10 1.00
  0.823600D+04 -0.113000D-03
  0.123500D+04 -0.878000D-03
  0.280800D+03 -0.454000D-02
  0.792700D+02 -0.181330D-01
  0.255900D+02 -0.557600D-01
  0.899700D+01 -0.126895D+00
  0.331900D+01 -0.170352D+00
  0.905900D+00  0.140382D+00
  0.364300D+00  0.598684D+00
  0.128500D+00  0.395389D+00
   s     1 1.00
  0.905900D+00  0.100000D+01
   s     1 1.00
  0.364300D+00  0.100000D+01
   p     5 1.00
  0.187100D+02  0.140310D-01
  0.413300D+01  0.868660D-01
  0.120000D+01  0.290216D+00
  0.382700D+00  0.501008D+00
  0.120900D+00  0.343406D+00
   p     1 1.00
  0.382700D+00  0.100000D+01
   p     1 1.00
  0.120900D+00  0.100000D+01
   d     1 1.00
  0.109700D+01  0.100000D+01
   d     1 1.00
  0.318000D+00  0.100000D+01
   f     1 1.00
  0.761000D+00  0.100000D+01
  
  4  0
   s    10 1.00
  0.823600D+04  0.531000D-03
  0.123500D+04  0.410800D-02
  0.280800D+03  0.210870D-01
  0.792700D+02  0.818530D-01
  0.255900D+02  0.234817D+00
  0.899700D+01  0.434401D+00
  0.331900D+01  0.346129D+00
  0.905900D+00  0.393780D-01
  0.364300D+00 -0.898300D-02
  0.128500D+00  0.238500D-02
   s    10 1.00
  0.823600D+04 -0.113000D-03
  0.123500D+04 -0.878000D-03
  0.280800D+03 -0.454000D-02
  0.792700D+02 -0.181330D-01
  0.255900D+02 -0.557600D-01
  0.899700D+01 -0.126895D+00
  0.331900D+01 -0.170352D+00
  0.905900D+00  0.140382D+00
  0.364300D+00  0.598684D+00
  0.128500D+00  0.395389D+00
   s     1 1.00
  0.905900D+00  0.100000D+01
   s     1 1.00
  0.364300D+00  0.100000D+01
   p     5 1.00
  0.187100D+02  0.140310D-01
  0.413300D+01  0.868660D-01
  0.120000D+01  0.290216D+00
  0.382700D+00  0.501008D+00
  0.120900D+00  0.343406D+00
   p     1 1.00
  0.382700D+00  0.100000D+01
   p     1 1.00
  0.120900D+00  0.100000D+01
   d     1 1.00
  0.109700D+01  0.100000D+01
   d     1 1.00
  0.318000D+00  0.100000D+01
   f     1 1.00
  0.761000D+00  0.100000D+01
  
  5  0
   s    10 1.00
  0.823600D+04  0.531000D-03
  0.123500D+04  0.410800D-02
  0.280800D+03  0.210870D-01
  0.792700D+02  0.818530D-01
  0.255900D+02  0.234817D+00
  0.899700D+01  0.434401D+00
  0.331900D+01  0.346129D+00
  0.905900D+00  0.393780D-01
  0.364300D+00 -0.898300D-02
  0.128500D+00  0.238500D-02
   s    10 1.00
  0.823600D+04 -0.113000D-03
  0.123500D+04 -0.878000D-03
  0.280800D+03 -0.454000D-02
  0.792700D+02 -0.181330D-01
  0.255900D+02 -0.557600D-01
  0.899700D+01 -0.126895D+00
  0.331900D+01 -0.170352D+00
  0.905900D+00  0.140382D+00
  0.364300D+00  0.598684D+00
  0.128500D+00  0.395389D+00
   s     1 1.00
  0.905900D+00  0.100000D+01
   s     1 1.00
  0.364300D+00  0.100000D+01
   p     5 1.00
  0.187100D+02  0.140310D-01
  0.413300D+01  0.868660D-01
  0.120000D+01  0.290216D+00
  0.382700D+00  0.501008D+00
  0.120900D+00  0.343406D+00
   p     1 1.00
  0.382700D+00  0.100000D+01
   p     1 1.00
  0.120900D+00  0.100000D+01
   d     1 1.00
  0.109700D+01  0.100000D+01
   d     1 1.00
  0.318000D+00  0.100000D+01
   f     1 1.00
  0.761000D+00  0.100000D+01
  
  6  0
   s    10 1.00
  0.823600D+04  0.531000D-03
  0.123500D+04  0.410800D-02
  0.280800D+03  0.210870D-01
  0.792700D+02  0.818530D-01
  0.255900D+02  0.234817D+00
  0.899700D+01  0.434401D+00
  0.331900D+01  0.346129D+00
  0.905900D+00  0.393780D-01
  0.364300D+00 -0.898300D-02
  0.128500D+00  0.238500D-02
   s    10 1.00
  0.823600D+04 -0.113000D-03
  0.123500D+04 -0.878000D-03
  0.280800D+03 -0.454000D-02
  0.792700D+02 -0.181330D-01
  0.255900D+02 -0.557600D-01
  0.899700D+01 -0.126895D+00
  0.331900D+01 -0.170352D+00
  0.905900D+00  0.140382D+00
  0.364300D+00  0.598684D+00
  0.128500D+00  0.395389D+00
   s     1 1.00
  0.905900D+00  0.100000D+01
   s     1 1.00
  0.364300D+00  0.100000D+01
   p     5 1.00
  0.187100D+02  0.140310D-01
  0.413300D+01  0.868660D-01
  0.120000D+01  0.290216D+00
  0.382700D+00  0.501008D+00
  0.120900D+00  0.343406D+00
   p     1 1.00
  0.382700D+00  0.100000D+01
   p     1 1.00
  0.120900D+00  0.100000D+01
   d     1 1.00
  0.109700D+01  0.100000D+01
   d     1 1.00
  0.318000D+00  0.100000D+01
   f     1 1.00
  0.761000D+00  0.100000D+01
  
  7  0
   s    10 1.00
  0.823600D+04  0.531000D-03
  0.123500D+04  0.410800D-02
  0.280800D+03  0.210870D-01
  0.792700D+02  0.818530D-01
  0.255900D+02  0.234817D+00
  0.899700D+01  0.434401D+00
  0.331900D+01  0.346129D+00
  0.905900D+00  0.393780D-01
  0.364300D+00 -0.898300D-02
  0.128500D+00  0.238500D-02
   s    10 1.00
  0.823600D+04 -0.113000D-03
  0.123500D+04 -0.878000D-03
  0.280800D+03 -0.454000D-02
  0.792700D+02 -0.181330D-01
  0.255900D+02 -0.557600D-01
  0.899700D+01 -0.126895D+00
  0.331900D+01 -0.170352D+00
  0.905900D+00  0.140382D+00
  0.364300D+00  0.598684D+00
  0.128500D+00  0.395389D+00
   s     1 1.00
  0.905900D+00  0.100000D+01
   s     1 1.00
  0.364300D+00  0.100000D+01
   p     5 1.00
  0.187100D+02  0.140310D-01
  0.413300D+01  0.868660D-01
  0.120000D+01  0.290216D+00
  0.382700D+00  0.501008D+00
  0.120900D+00  0.343406D+00
   p     1 1.00
  0.382700D+00  0.100000D+01
   p     1 1.00
  0.120900D+00  0.100000D+01
   d     1 1.00
  0.109700D+01  0.100000D+01
   d     1 1.00
  0.318000D+00  0.100000D+01
   f     1 1.00
  0.761000D+00  0.100000D+01
  
  8  0
   s     4 1.00
  0.130100D+02  0.196850D-01
  0.196200D+01  0.137977D+00
  0.444600D+00  0.478148D+00
  0.122000D+00  0.501240D+00
   s     1 1.00
  0.122000D+00  0.100000D+01
   p     1 1.00
  0.727000D+00  0.100000D+01
  
  9  0
   s     4 1.00
  0.130100D+02  0.196850D-01
  0.196200D+01  0.137977D+00
  0.444600D+00  0.478148D+00
  0.122000D+00  0.501240D+00
   s     1 1.00
  0.122000D+00  0.100000D+01
   p     1 1.00
  0.727000D+00  0.100000D+01
  
 10  0
   s     4 1.00
  0.130100D+02  0.196850D-01
  0.196200D+01  0.137977D+00
  0.444600D+00  0.478148D+00
  0.122000D+00  0.501240D+00
   s     1 1.00
  0.122000D+00  0.100000D+01
   p     1 1.00
  0.727000D+00  0.100000D+01
  
 11  0
   s     4 1.00
  0.130100D+02  0.196850D-01
  0.196200D+01  0.137977D+00
  0.444600D+00  0.478148D+00
  0.122000D+00  0.501240D+00
   s     1 1.00
  0.122000D+00  0.100000D+01
   p     1 1.00
  0.727000D+00  0.100000D+01
  
 12  0
   s     4 1.00
  0.130100D+02  0.196850D-01
  0.196200D+01  0.137977D+00
  0.444600D+00  0.478148D+00
  0.122000D+00  0.501240D+00
   s     1 1.00
  0.122000D+00  0.100000D+01
   p     1 1.00
  0.727000D+00  0.100000D+01
  
 13  0
   s     4 1.00
  0.130100D+02  0.196850D-01
  0.196200D+01  0.137977D+00
  0.444600D+00  0.478148D+00
  0.122000D+00  0.501240D+00
   s     1 1.00
  0.122000D+00  0.100000D+01
   p     1 1.00
  0.727000D+00  0.100000D+01
  
 14  0
   s     4 1.00
  0.130100D+02  0.196850D-01
  0.196200D+01  0.137977D+00
  0.444600D+00  0.478148D+00
  0.122000D+00  0.501240D+00
   s     1 1.00
  0.122000D+00  0.100000D+01
   p     1 1.00
  0.727000D+00  0.100000D+01
  
[MO]
 Sym= __1_A__
 Ene=   1.00000000000000     
 Spin= Alpha
 Occup=    1.00000000000000     
                     1  1.003691139730135E-004
                     2  0.997542639048609     
                     3  1.511000232264171E-002
                     4  2.220853998017000E-003
                     5  5.703140034362736E-004
                     6 -2.550896590038508E-006
                     7 -3.958500704969576E-006
                     8  3.085283788707919E-003
                     9  3.101508664680019E-007
                    10  4.968700058651190E-007
                    11 -3.784610028857240E-004
                    12  5.237016383659751E-007
                    13  7.765301140995861E-007
                    14 -6.329991530905933E-004
                    15  1.375183296497983E-004
                    16 -4.071434910022203E-008
                    17 -3.860059017219284E-007
                    18  1.011844230132399E-004
                    19  5.666282444622158E-005
                    20  7.837806389325267E-005
                    21 -8.532642648427936E-007
                    22  2.741656531627672E-007
                    23 -5.238411444454192E-004
                    24 -2.382163061345448E-004
                    25 -1.944685025911626E-004
                    26 -5.596873850334880E-007
                    27 -5.355353615403698E-007
                    28 -6.312364872637470E-005
                    29 -4.030642271840224E-005
                    30 -1.163811696749912E-009
                    31  1.392414013981652E-007
                    32 -2.098603415887895E-004
                    33  3.088687413280620E-003
                    34  1.168017273154366E-004
                    35 -6.792564696564859E-004
                    36  5.928629227492556E-006
                    37  9.157941221118249E-006
                    38 -7.155976649951625E-003
                    39  1.259522562195432E-007
                    40  1.091500291297704E-007
                    41 -1.368127902576948E-004
                    42 -3.113962217246966E-006
                    43 -4.754226557249047E-006
                    44  3.750301492443854E-003
                    45  4.011374284586257E-004
                    46 -4.890957651573275E-007
                    47 -9.944800948128327E-007
                    48  9.631478034337820E-005
                    49  5.820875138965546E-006
                    50  7.739469789796239E-004
                    51 -9.225304924512549E-007
                    52 -2.018109912642260E-006
                    53  1.460671455657403E-004
                    54  4.663007165055443E-005
                    55 -4.817685662554212E-005
                    56 -6.829879638013978E-008
                    57 -2.126108167418901E-007
                    58  2.680651371784730E-005
                    59 -3.210471260524944E-006
                    60  3.199065077323707E-008
                    61 -4.232169087499465E-008
                    62 -2.008234927099083E-004
                    63 -1.833167438160077E-003
                    64  1.715567732427480E-006
                    65  8.637513377471172E-004
                    66  7.008639119935543E-005
                    67 -9.434623862378132E-004
                    68  1.333457603156906E-003
                    69  7.318797613386600E-006
                    70  1.140051270278251E-004
                    71  6.443537459582571E-005
                    72  5.487921603902748E-005
                    73 -6.319603664125500E-004
                    74 -3.518325144456974E-004
                    75  9.876822283981084E-005
                    76  1.845550900438475E-006
                    77 -1.119715445549780E-005
                    78  3.658659993169710E-005
                    79  4.859059222961539E-006
                    80  4.547420822639522E-005
                    81 -1.699919992278752E-006
                    82 -4.371142349681661E-005
                    83  3.144299604285898E-005
                    84  1.351050962920092E-005
                    85 -6.817121146873943E-005
                    86  2.707029844677615E-006
                    87  2.593811326538068E-006
                    88  1.970964208748441E-005
                    89  9.584757716880312E-007
                    90  5.879693810690971E-006
                    91  2.750757782954825E-005
                    92 -2.007827287468067E-004
                    93 -1.833005214909540E-003
                    94  1.899687567056557E-006
                    95  8.631603245615454E-004
                    96 -7.230158480545687E-005
                    97  9.400776561349250E-004
                    98  1.335868927421918E-003
                    99 -7.400436104136427E-006
                   100 -1.143323158197586E-004
                   101  6.342829170809501E-005
                   102 -5.424416576832245E-005
                   103  6.322068691272834E-004
                   104 -3.501434585485982E-004
                   105  9.877476839366850E-005
                   106 -2.056347525109373E-006
                   107  1.069320052588925E-005
                   108  3.661948440991702E-005
                   109  4.845347675993046E-006
                   110  4.517488800392822E-005
                   111  1.676794509533103E-006
                   112  4.333561321538868E-005
                   113  3.145149173856084E-005
                   114  1.342430650954317E-005
                   115 -6.806553672521422E-005
                   116 -2.925897434398185E-006
                   117 -3.095094134648646E-006
                   118  1.962688949096622E-005
                   119  9.016280777897380E-007
                   120 -5.843017253892644E-006
                   121 -2.756950026804917E-005
                   122 -1.649406450897252E-004
                   123  2.862597688425996E-005
                   124  7.099208164029874E-005
                   125  3.104688770101080E-004
                   126 -4.343467578709416E-005
                   127  6.569869073460227E-005
                   128 -9.071398345192789E-004
                   129 -2.569164185844925E-006
                   130  1.750488094877312E-005
                   131  1.687323860033179E-004
                   132  3.462485419867070E-006
                   133  1.398477110887975E-005
                   134  5.470585770728538E-004
                   135  4.796027978691952E-006
                   136  1.305646736052662E-007
                   137  8.700383248862345E-006
                   138 -1.967955196904534E-006
                   139  5.122334939472951E-007
                   140 -1.195066845028847E-004
                   141 -8.525522786519936E-006
                   142  7.547962371778323E-005
                   143  3.802248005339304E-005
                   144  1.945946618633235E-006
                   145 -2.133691446771909E-005
                   146  5.161838353328442E-007
                   147 -8.307056831451885E-006
                   148 -7.886796149598156E-006
                   149 -1.429603139040877E-006
                   150 -1.028583210944327E-006
                   151 -2.486830505428196E-006
                   152 -1.654765881808296E-004
                   153  2.672488605041809E-005
                   154  7.044043186262403E-005
                   155  3.139016889790009E-004
                   156  4.492869161845766E-005
                   157 -6.331406262776869E-005
                   158 -9.071965233107863E-004
                   159  2.349757851080250E-006
                   160 -1.836182307454768E-005
                   161  1.683018251282796E-004
                   162 -4.430243655819459E-006
                   163 -1.477737933927861E-005
                   164  5.471788689492172E-004
                   165  4.817559910330372E-006
                   166 -1.479675781900883E-007
                   167 -8.725267129568898E-006
                   168 -2.048164302829234E-006
                   169  5.151587286101344E-007
                   170 -1.196709286269336E-004
                   171  8.954199748243139E-006
                   172 -7.532672343391813E-005
                   173  3.775808544553628E-005
                   174  2.041045454269168E-006
                   175 -2.128656222586771E-005
                   176 -6.262835997013817E-007
                   177  8.208721834001331E-006
                   178 -7.904766819262235E-006
                   179 -1.451984281478884E-006
                   180  1.019683648772653E-006
                   181  2.525728837305618E-006
                   182 -1.388572295520278E-004
                   183 -3.755403835583017E-004
                   184  2.062340516476987E-005
                   185  2.879871190398115E-004
                   186  3.203003545013434E-008
                   187  1.673479937175018E-007
                   188 -5.241450355126467E-005
                   189  3.737492453087522E-008
                   190 -5.264852461604593E-007
                   191  1.719236010445649E-005
                   192  8.832406086734462E-008
                   193  9.751473435071313E-008
                   194 -1.017778986786358E-004
                   195  2.112163367632129E-005
                   196 -2.482914016356745E-008
                   197 -2.658211235735897E-008
                   198  7.111179370151900E-006
                   199  1.996961417600638E-006
                   200  2.408494474941880E-005
                   201 -4.898184583649470E-008
                   202  1.815039876165382E-007
                   203  8.245243011257178E-006
                   204  4.283074419296847E-007
                   205 -1.188782681969547E-005
                   206 -1.692731359948122E-008
                   207 -4.982105169502806E-008
                   208  3.055457330650732E-006
                   209  1.139527787691797E-006
                   210  1.018033184053431E-008
                   211  2.525249860142477E-008
                   212  7.218125749940921E-003
                   213 -3.829114770920840E-003
                   214  7.081682938239107E-004
                   215  1.498042402534406E-004
                   216  4.753265530574473E-004
                   217  7.218112822624076E-003
                   218 -3.829111555814059E-003
                   219 -7.089537136578291E-004
                   220 -1.510199054534416E-004
                   221  4.737668807156538E-004
                   222 -7.106128051498213E-004
                   223 -2.023259072163792E-004
                   224  3.984325572741648E-006
                   225 -4.146338616393027E-005
                   226 -5.098973671166829E-005
                   227 -7.106849551154201E-004
                   228 -2.019104100587537E-004
                   229 -3.898791770093268E-006
                   230  4.157258341643601E-005
                   231 -5.092092567637302E-005
                   232 -2.995584922460861E-004
                   233 -1.922200968660686E-004
                   234 -7.918234039281564E-008
                   235 -1.756323907227345E-005
                   236 -3.960334074799128E-006
                   237 -2.996086318435267E-004
                   238 -1.923854098510717E-004
                   239  7.993105206286094E-008
                   240  1.762517547351247E-005
                   241 -3.861118601048730E-006
                   242  1.128704308595856E-004
                   243  1.693555173603442E-005
                   244 -1.252630149581153E-008
                   245 -4.689822989398217E-008
                   246  1.714966636689190E-005
 Sym= __2_A__
 Ene=   2.00000000000000     
 Spin= Alpha
 Occup=    1.00000000000000     
                     1 -2.078279824837922E-006
                     2 -5.849259174904300E-005
                     3  1.693245121052774E-003
                     4  2.993849308912364E-005
                     5  1.086231377824180E-003
                     6 -1.403739294820041E-006
                     7 -2.149784268675883E-006
                     8  1.688246657432316E-003
                     9  9.321567608587225E-008
                    10  1.374200807969555E-007
                    11 -1.105337141313466E-004
                    12 -3.440280818527193E-008
                    13 -5.128573273095383E-008
                    14  4.306824610919321E-005
                    15  5.380682893238952E-005
                    16 -8.311883632297111E-008
                    17 -1.309722363882221E-007
                    18  4.832308326554284E-006
                    19 -7.537046911910626E-006
                    20 -7.488598820523750E-005
                    21  1.439966501767733E-007
                    22  1.951760855194497E-007
                    23 -2.747012044771072E-006
                    24  2.941953201359087E-005
                    25  1.898425686745256E-004
                    26  2.840072881491779E-007
                    27  6.811847291167887E-007
                    28 -5.413508198377642E-005
                    29 -1.568809797016508E-005
                    30 -3.020181894117246E-008
                    31  1.009913125771109E-007
                    32   1.00104598096437     
                    33  8.721614424580498E-003
                    34  2.555842473591999E-003
                    35 -7.975109986844260E-003
                    36  2.136444617789929E-006
                    37  3.287460715907758E-006
                    38 -2.578342379647465E-003
                    39 -9.191216313578371E-007
                    40 -1.409179380593682E-006
                    41  1.108011182649450E-003
                    42 -2.713568825231449E-006
                    43 -4.255293405179155E-006
                    44  3.281120570346914E-003
                    45  2.464506415139418E-004
                    46 -7.119271637678494E-007
                    47 -1.101056499826396E-007
                    48 -3.693715246789180E-004
                    49 -4.057238020167490E-005
                    50  3.012910671685424E-004
                    51  3.390678939606335E-007
                    52 -1.547872256340957E-006
                    53  7.720045647915822E-004
                    54  1.030511498498586E-004
                    55  2.724801847896430E-004
                    56  3.189549236925213E-007
                    57  1.154751568853251E-006
                    58 -1.581223002152831E-004
                    59 -1.321411619496744E-005
                    60 -1.395620565224130E-007
                    61  2.623446509980350E-007
                    62  1.276810072677900E-002
                    63 -1.688880495720274E-003
                    64 -2.870393901207763E-004
                    65  2.878188843992478E-003
                    66 -1.833326797117360E-005
                    67  2.850113872197944E-004
                    68 -1.767057258683300E-004
                    69 -3.574985595047400E-005
                    70  5.085463870509173E-004
                    71  1.026295815911887E-004
                    72  1.411315975694735E-004
                    73 -1.737049737881923E-003
                    74  1.857832253393209E-004
                    75 -2.874288678347899E-005
                    76  8.063584726898272E-007
                    77  1.422780585339327E-005
                    78  1.719437277287624E-005
                    79  1.791064670477643E-006
                    80  7.584646201134998E-004
                    81  3.935229746441067E-005
                    82 -4.127646079868943E-004
                    83 -4.201678021229596E-005
                    84 -1.109855666188800E-005
                    85  4.623363720560172E-005
                    86 -7.722512268466939E-008
                    87  1.962575046808507E-005
                    88 -1.053401880362710E-004
                    89 -1.260626829214647E-005
                    90  1.001823804593076E-005
                    91  4.722085152593913E-005
                    92  1.276808890620963E-002
                    93 -1.688957339699069E-003
                    94 -2.870878209616781E-004
                    95  2.878390719488882E-003
                    96  1.862655726700488E-005
                    97 -2.845616597398536E-004
                    98 -1.774306503552670E-004
                    99  3.557641339742935E-005
                   100 -5.087942859418813E-004
                   101  1.015471088678242E-004
                   102 -1.414558774362482E-004
                   103  1.736719201651435E-003
                   104  1.898343432726645E-004
                   105 -2.879381984771309E-005
                   106 -6.906337801671515E-007
                   107 -1.414742499394161E-005
                   108  1.715805425021326E-005
                   109  1.816589781015578E-006
                   110  7.602554017598029E-004
                   111 -4.163699641709986E-005
                   112  4.095406653955151E-004
                   113 -4.087677121836200E-005
                   114 -1.167408087305037E-005
                   115  4.633744498036324E-005
                   116 -6.304291049020302E-008
                   117 -1.894214358245332E-005
                   118 -1.055426121798660E-004
                   119 -1.268254009279843E-005
                   120 -1.019261389596244E-005
                   121 -4.686474488589934E-005
                   122 -1.216959099616214E-004
                   123 -7.585811420085489E-004
                   124  2.296453495853614E-004
                   125 -2.044425082525566E-004
                   126 -2.090316061146230E-006
                   127 -3.622189234092711E-005
                   128 -1.627900490968906E-004
                   129  1.515632417417113E-005
                   130  2.102529739136120E-005
                   131  5.831612317587701E-004
                   132 -2.211541807738884E-005
                   133  2.925567379530537E-004
                   134  6.085798665909655E-004
                   135 -2.611175656677674E-005
                   136 -4.416877921402351E-006
                   137  4.278684400994851E-005
                   138  1.539283102553989E-005
                   139  4.555823062145982E-006
                   140 -2.936628555678498E-004
                   141  4.603064407162354E-006
                   142 -2.286087130420155E-004
                   143 -2.495626909916214E-005
                   144 -1.863710394319557E-005
                   145 -7.923440052105790E-006
                   146  4.664376490683192E-006
                   147 -2.261925172320243E-005
                   148 -3.104726037644066E-005
                   149 -6.126218935386713E-006
                   150 -4.904467700184550E-007
                   151 -5.879676664582421E-006
                   152 -1.214179249619726E-004
                   153 -7.576610415332927E-004
                   154  2.297414019082134E-004
                   155 -2.055337979387064E-004
                   156  2.361305275477467E-006
                   157  3.662344216763612E-005
                   158 -1.626987892320389E-004
                   159 -1.613430762273793E-005
                   160 -2.243884267451425E-005