[Molden Format]
[Atoms] AU
  N     1    7     0.0000000000    0.0000000000   -4.2907334100        
  C     2    6     0.0000000000    0.0000000000   -1.7772236300        
  C     3    6     0.0000000000   -2.3389203600   -0.4111016300        
  C     4    6     0.0000000000    2.3389203600   -0.4111016300        
  C     5    6     0.0000000000   -2.2998668500    2.1639215300        
  C     6    6     0.0000000000    2.2998668500    2.1639215300        
  C     7    6     0.0000000000    0.0000000000    3.4755251800        
  H     8    1     0.0000000000   -1.9299607200   -5.4813572000        
  H     9    1     0.0000000000    1.7691306600   -5.3821385500        
  H    10    1     0.0000000000   -4.0745407300   -1.4447408500        
  H    11    1     0.0000000000    4.0745407300   -1.4447408500        
  H    12    1     0.0000000000   -4.0420632100    3.1963889500        
  H    13    1     0.0000000000    4.0420632100    3.1963889500        
  H    14    1     0.0000000000    0.0000000000    5.5020335600        
[5D]
[7F]
[GTO]
  1  0
   s    12 1.00
  0.114200D+05  0.172695D-04
  0.171200D+04  0.134411D-03
  0.389300D+03  0.694561D-03
  0.110000D+03  0.278531D-02
  0.355700D+02  0.863457D-02
  0.125400D+02  0.199805D-01
  0.464400D+01  0.262908D-01
  0.129300D+01 -0.243845D-01
  0.511800D+00 -0.924934D-01
  0.178700D+00 -0.339683D+00
  0.246240D-01  0.345111D+00
  0.112530D-01  0.752750D+00
   s    10 1.00
  0.114200D+05  0.523000D-03
  0.171200D+04  0.404500D-02
  0.389300D+03  0.207750D-01
  0.110000D+03  0.807269D-01
  0.355700D+02  0.233074D+00
  0.125400D+02  0.433501D+00
  0.464400D+01  0.347472D+00
  0.129300D+01  0.412620D-01
  0.511800D+00 -0.850799D-02
  0.178700D+00  0.238400D-02
   s    10 1.00
  0.114200D+05 -0.115000D-03
  0.171200D+04 -0.895000D-03
  0.389300D+03 -0.462400D-02
  0.110000D+03 -0.185280D-01
  0.355700D+02 -0.573390D-01
  0.125400D+02 -0.132076D+00
  0.464400D+01 -0.172510D+00
  0.129300D+01  0.151814D+00
  0.511800D+00  0.599944D+00
  0.178700D+00  0.387462D+00
   s     1 1.00
  0.129300D+01  0.100000D+01
   s     1 1.00
  0.178700D+00  0.100000D+01
   p     5 1.00
  0.266300D+02  0.146700D-01
  0.594800D+01  0.917640D-01
  0.174200D+01  0.298683D+00
  0.555000D+00  0.498487D+00
  0.172500D+00  0.337023D+00
   p     1 1.00
  0.174200D+01  0.100000D+01
   p     1 1.00
  0.555000D+00  0.100000D+01
   d     1 1.00
  0.165400D+01  0.100000D+01
   d     1 1.00
  0.469000D+00  0.100000D+01
   f     1 1.00
  0.109300D+01  0.100000D+01
  
  2  0
   s    10 1.00
  0.823600D+04  0.531000D-03
  0.123500D+04  0.410800D-02
  0.280800D+03  0.210870D-01
  0.792700D+02  0.818530D-01
  0.255900D+02  0.234817D+00
  0.899700D+01  0.434401D+00
  0.331900D+01  0.346129D+00
  0.905900D+00  0.393780D-01
  0.364300D+00 -0.898300D-02
  0.128500D+00  0.238500D-02
   s    10 1.00
  0.823600D+04 -0.113000D-03
  0.123500D+04 -0.878000D-03
  0.280800D+03 -0.454000D-02
  0.792700D+02 -0.181330D-01
  0.255900D+02 -0.557600D-01
  0.899700D+01 -0.126895D+00
  0.331900D+01 -0.170352D+00
  0.905900D+00  0.140382D+00
  0.364300D+00  0.598684D+00
  0.128500D+00  0.395389D+00
   s     1 1.00
  0.905900D+00  0.100000D+01
   s     1 1.00
  0.364300D+00  0.100000D+01
   p     5 1.00
  0.187100D+02  0.140310D-01
  0.413300D+01  0.868660D-01
  0.120000D+01  0.290216D+00
  0.382700D+00  0.501008D+00
  0.120900D+00  0.343406D+00
   p     1 1.00
  0.382700D+00  0.100000D+01
   p     1 1.00
  0.120900D+00  0.100000D+01
   d     1 1.00
  0.109700D+01  0.100000D+01
   d     1 1.00
  0.318000D+00  0.100000D+01
   f     1 1.00
  0.761000D+00  0.100000D+01
  
  3  0
   s    10 1.00
  0.823600D+04  0.531000D-03
  0.123500D+04  0.410800D-02
  0.280800D+03  0.210870D-01
  0.792700D+02  0.818530D-01
  0.255900D+02  0.234817D+00
  0.899700D+01  0.434401D+00
  0.331900D+01  0.346129D+00
  0.905900D+00  0.393780D-01
  0.364300D+00 -0.898300D-02
  0.128500D+00  0.238500D-02
   s    10 1.00
  0.823600D+04 -0.113000D-03
  0.123500D+04 -0.878000D-03
  0.280800D+03 -0.454000D-02
  0.792700D+02 -0.181330D-01
  0.255900D+02 -0.557600D-01
  0.899700D+01 -0.126895D+00
  0.331900D+01 -0.170352D+00
  0.905900D+00  0.140382D+00
  0.364300D+00  0.598684D+00
  0.128500D+00  0.395389D+00
   s     1 1.00
  0.905900D+00  0.100000D+01
   s     1 1.00
  0.364300D+00  0.100000D+01
   p     5 1.00
  0.187100D+02  0.140310D-01
  0.413300D+01  0.868660D-01
  0.120000D+01  0.290216D+00
  0.382700D+00  0.501008D+00
  0.120900D+00  0.343406D+00
   p     1 1.00
  0.382700D+00  0.100000D+01
   p     1 1.00
  0.120900D+00  0.100000D+01
   d     1 1.00
  0.109700D+01  0.100000D+01
   d     1 1.00
  0.318000D+00  0.100000D+01
   f     1 1.00
  0.761000D+00  0.100000D+01
  
  4  0
   s    10 1.00
  0.823600D+04  0.531000D-03
  0.123500D+04  0.410800D-02
  0.280800D+03  0.210870D-01
  0.792700D+02  0.818530D-01
  0.255900D+02  0.234817D+00
  0.899700D+01  0.434401D+00
  0.331900D+01  0.346129D+00
  0.905900D+00  0.393780D-01
  0.364300D+00 -0.898300D-02
  0.128500D+00  0.238500D-02
   s    10 1.00
  0.823600D+04 -0.113000D-03
  0.123500D+04 -0.878000D-03
  0.280800D+03 -0.454000D-02
  0.792700D+02 -0.181330D-01
  0.255900D+02 -0.557600D-01
  0.899700D+01 -0.126895D+00
  0.331900D+01 -0.170352D+00
  0.905900D+00  0.140382D+00
  0.364300D+00  0.598684D+00
  0.128500D+00  0.395389D+00
   s     1 1.00
  0.905900D+00  0.100000D+01
   s     1 1.00
  0.364300D+00  0.100000D+01
   p     5 1.00
  0.187100D+02  0.140310D-01
  0.413300D+01  0.868660D-01
  0.120000D+01  0.290216D+00
  0.382700D+00  0.501008D+00
  0.120900D+00  0.343406D+00
   p     1 1.00
  0.382700D+00  0.100000D+01
   p     1 1.00
  0.120900D+00  0.100000D+01
   d     1 1.00
  0.109700D+01  0.100000D+01
   d     1 1.00
  0.318000D+00  0.100000D+01
   f     1 1.00
  0.761000D+00  0.100000D+01
  
  5  0
   s    10 1.00
  0.823600D+04  0.531000D-03
  0.123500D+04  0.410800D-02
  0.280800D+03  0.210870D-01
  0.792700D+02  0.818530D-01
  0.255900D+02  0.234817D+00
  0.899700D+01  0.434401D+00
  0.331900D+01  0.346129D+00
  0.905900D+00  0.393780D-01
  0.364300D+00 -0.898300D-02
  0.128500D+00  0.238500D-02
   s    10 1.00
  0.823600D+04 -0.113000D-03
  0.123500D+04 -0.878000D-03
  0.280800D+03 -0.454000D-02
  0.792700D+02 -0.181330D-01
  0.255900D+02 -0.557600D-01
  0.899700D+01 -0.126895D+00
  0.331900D+01 -0.170352D+00
  0.905900D+00  0.140382D+00
  0.364300D+00  0.598684D+00
  0.128500D+00  0.395389D+00
   s     1 1.00
  0.905900D+00  0.100000D+01
   s     1 1.00
  0.364300D+00  0.100000D+01
   p     5 1.00
  0.187100D+02  0.140310D-01
  0.413300D+01  0.868660D-01
  0.120000D+01  0.290216D+00
  0.382700D+00  0.501008D+00
  0.120900D+00  0.343406D+00
   p     1 1.00
  0.382700D+00  0.100000D+01
   p     1 1.00
  0.120900D+00  0.100000D+01
   d     1 1.00
  0.109700D+01  0.100000D+01
   d     1 1.00
  0.318000D+00  0.100000D+01
   f     1 1.00
  0.761000D+00  0.100000D+01
  
  6  0
   s    10 1.00
  0.823600D+04  0.531000D-03
  0.123500D+04  0.410800D-02
  0.280800D+03  0.210870D-01
  0.792700D+02  0.818530D-01
  0.255900D+02  0.234817D+00
  0.899700D+01  0.434401D+00
  0.331900D+01  0.346129D+00
  0.905900D+00  0.393780D-01
  0.364300D+00 -0.898300D-02
  0.128500D+00  0.238500D-02
   s    10 1.00
  0.823600D+04 -0.113000D-03
  0.123500D+04 -0.878000D-03
  0.280800D+03 -0.454000D-02
  0.792700D+02 -0.181330D-01
  0.255900D+02 -0.557600D-01
  0.899700D+01 -0.126895D+00
  0.331900D+01 -0.170352D+00
  0.905900D+00  0.140382D+00
  0.364300D+00  0.598684D+00
  0.128500D+00  0.395389D+00
   s     1 1.00
  0.905900D+00  0.100000D+01
   s     1 1.00
  0.364300D+00  0.100000D+01
   p     5 1.00
  0.187100D+02  0.140310D-01
  0.413300D+01  0.868660D-01
  0.120000D+01  0.290216D+00
  0.382700D+00  0.501008D+00
  0.120900D+00  0.343406D+00
   p     1 1.00
  0.382700D+00  0.100000D+01
   p     1 1.00
  0.120900D+00  0.100000D+01
   d     1 1.00
  0.109700D+01  0.100000D+01
   d     1 1.00
  0.318000D+00  0.100000D+01
   f     1 1.00
  0.761000D+00  0.100000D+01
  
  7  0
   s    10 1.00
  0.823600D+04  0.531000D-03
  0.123500D+04  0.410800D-02
  0.280800D+03  0.210870D-01
  0.792700D+02  0.818530D-01
  0.255900D+02  0.234817D+00
  0.899700D+01  0.434401D+00
  0.331900D+01  0.346129D+00
  0.905900D+00  0.393780D-01
  0.364300D+00 -0.898300D-02
  0.128500D+00  0.238500D-02
   s    10 1.00
  0.823600D+04 -0.113000D-03
  0.123500D+04 -0.878000D-03
  0.280800D+03 -0.454000D-02
  0.792700D+02 -0.181330D-01
  0.255900D+02 -0.557600D-01
  0.899700D+01 -0.126895D+00
  0.331900D+01 -0.170352D+00
  0.905900D+00  0.140382D+00
  0.364300D+00  0.598684D+00
  0.128500D+00  0.395389D+00
   s     1 1.00
  0.905900D+00  0.100000D+01
   s     1 1.00
  0.364300D+00  0.100000D+01
   p     5 1.00
  0.187100D+02  0.140310D-01
  0.413300D+01  0.868660D-01
  0.120000D+01  0.290216D+00
  0.382700D+00  0.501008D+00
  0.120900D+00  0.343406D+00
   p     1 1.00
  0.382700D+00  0.100000D+01
   p     1 1.00
  0.120900D+00  0.100000D+01
   d     1 1.00
  0.109700D+01  0.100000D+01
   d     1 1.00
  0.318000D+00  0.100000D+01
   f     1 1.00
  0.761000D+00  0.100000D+01
  
  8  0
   s     4 1.00
  0.130100D+02  0.196850D-01
  0.196200D+01  0.137977D+00
  0.444600D+00  0.478148D+00
  0.122000D+00  0.501240D+00
   s     1 1.00
  0.122000D+00  0.100000D+01
   p     1 1.00
  0.727000D+00  0.100000D+01
  
  9  0
   s     4 1.00
  0.130100D+02  0.196850D-01
  0.196200D+01  0.137977D+00
  0.444600D+00  0.478148D+00
  0.122000D+00  0.501240D+00
   s     1 1.00
  0.122000D+00  0.100000D+01
   p     1 1.00
  0.727000D+00  0.100000D+01
  
 10  0
   s     4 1.00
  0.130100D+02  0.196850D-01
  0.196200D+01  0.137977D+00
  0.444600D+00  0.478148D+00
  0.122000D+00  0.501240D+00
   s     1 1.00
  0.122000D+00  0.100000D+01
   p     1 1.00
  0.727000D+00  0.100000D+01
  
 11  0
   s     4 1.00
  0.130100D+02  0.196850D-01
  0.196200D+01  0.137977D+00
  0.444600D+00  0.478148D+00
  0.122000D+00  0.501240D+00
   s     1 1.00
  0.122000D+00  0.100000D+01
   p     1 1.00
  0.727000D+00  0.100000D+01
  
 12  0
   s     4 1.00
  0.130100D+02  0.196850D-01
  0.196200D+01  0.137977D+00
  0.444600D+00  0.478148D+00
  0.122000D+00  0.501240D+00
   s     1 1.00
  0.122000D+00  0.100000D+01
   p     1 1.00
  0.727000D+00  0.100000D+01
  
 13  0
   s     4 1.00
  0.130100D+02  0.196850D-01
  0.196200D+01  0.137977D+00
  0.444600D+00  0.478148D+00
  0.122000D+00  0.501240D+00
   s     1 1.00
  0.122000D+00  0.100000D+01
   p     1 1.00
  0.727000D+00  0.100000D+01
  
 14  0
   s     4 1.00
  0.130100D+02  0.196850D-01
  0.196200D+01  0.137977D+00
  0.444600D+00  0.478148D+00
  0.122000D+00  0.501240D+00
   s     1 1.00
  0.122000D+00  0.100000D+01
   p     1 1.00
  0.727000D+00  0.100000D+01
  
[MO]
 Sym= __1_a__
 Ene=  0.000000000000000E+000
 Spin= Alpha
 Occup=    2.00000000000000     
                     1  1.522814654289790E-007
                     2  0.998418295864106     
                     3  6.794052449611230E-003
                     4  1.728825618987040E-003
                     5  2.281571914993680E-003
                     6 -2.033516117919130E-011
                     7  3.174680580486620E-004
                     8  4.873616827524170E-003
                     9  4.781741567902880E-012
                    10  4.647106927649620E-005
                    11 -7.385238484008981E-005
                    12  1.021017410115730E-011
                    13 -1.253900576783650E-004
                    14 -4.480863710491870E-004
                    15  2.693379517919431E-004
                    16 -6.660718136135050E-013
                    17 -3.268408682965980E-005
                    18 -1.431261673884010E-005
                    19  1.790266213840140E-013
                    20  1.008132814412923E-004
                    21 -6.618512845948900E-013
                    22  5.620921204343180E-005
                    23  5.194336771157900E-004
                    24 -3.138113468517570E-012
                    25 -1.303717020716153E-004
                    26 -2.134999144003765E-012
                    27  3.005687975591727E-006
                    28  2.445359548081640E-005
                    29  5.231791781701510E-013
                    30 -4.125074249758999E-013
                    31 -5.117591720583565E-006
                    32 -3.344582939879980E-004
                    33  2.450445191901390E-003
                    34  1.279825306439700E-004
                    35 -1.929521262796140E-004
                    36 -2.417186301639920E-012
                    37 -2.596321435704490E-005
                    38 -6.397033674511860E-003
                    39 -3.261511579136820E-012
                    40  1.797407259308120E-005
                    41  2.064412702211330E-004
                    42  2.151117093416230E-012
                    43 -1.008607482550460E-004
                    44  4.704629209454310E-003
                    45  3.237905751729499E-004
                    46  1.007401240282730E-013
                    47 -8.667630351483809E-006
                    48  1.266119770874058E-004
                    49 -2.987699669403970E-012
                    50  1.572262084593037E-004
                    51 -1.566963283405800E-012
                    52  4.899034205140300E-005
                    53 -3.767317989473720E-004
                    54  1.492925950780440E-012
                    55 -9.094523094234483E-005
                    56 -1.486636472362253E-012
                    57  4.644536509203058E-006
                    58  6.072479254562340E-005
                    59  1.263305770768030E-012
                    60 -9.392298729850259E-013
                    61 -9.453658545105522E-009
                    62 -2.215591860068000E-004
                    63 -1.553081101930060E-003
                    64  4.359005881037240E-005
                    65  6.572318211387500E-004
                    66 -1.422226047941200E-011
                    67 -7.647771503894550E-004
                    68  8.316222548456260E-004
                    69  1.366232315455190E-011
                    70  5.164220384578050E-006
                    71  5.942742345052551E-004
                    72  2.398245915981100E-013
                    73 -7.850815526194060E-004
                    74 -1.436890747680080E-004
                    75  8.419289136850034E-005
                    76 -2.725416650849610E-012
                    77 -6.170595101054770E-006
                    78  3.351593808963360E-005
                    79 -2.424397683200310E-012
                    80  6.474917933042806E-006
                    81 -3.405068322221970E-012
                    82  1.416599776135910E-004
                    83 -1.896084582661376E-005
                    84  5.548914842929540E-012
                    85 -9.525393852592199E-005
                    86 -3.945496690513647E-012
                    87 -2.959120399746645E-005
                    88  2.056542196308460E-005
                    89  5.479144765583140E-013
                    90  4.434236160451839E-012
                    91  1.213484302364503E-005
                    92 -2.232457158350380E-004
                    93 -1.620716133256420E-003
                    94  6.331277915384610E-005
                    95  5.676272328416270E-004
                    96  3.326096286981140E-012
                    97  7.860727059351450E-004
                    98  8.975502797384810E-004
                    99  4.622472046492910E-012
                   100  5.103228443300610E-005
                   101  5.831461747644220E-004
                   102  2.219211882142220E-012
                   103  6.665876998123589E-004
                   104 -3.035219189375720E-004
                   105  8.543838460028650E-005
                   106  7.803692654711180E-013
                   107  2.873426021069930E-006
                   108  3.827111512276460E-005
                   109 -1.930540704258130E-012
                   110  2.332027978707368E-005
                   111  6.899192322075360E-012
                   112 -1.353800605998570E-004
                   113 -6.065518440989920E-006
                   114  3.415412608169410E-013
                   115 -8.985186810561932E-005
                   116  2.193504727442055E-012
                   117  2.491471308642799E-005
                   118  1.941472172728978E-005
                   119  1.298701760966290E-012
                   120 -1.195126377555209E-012
                   121 -1.295782060464872E-005
                   122 -1.557392112607770E-004
                   123 -8.639727124390680E-005
                   124  1.103934579531000E-004
                   125  1.599424571353230E-004
                   126  3.291366993675730E-012
                   127  3.017708994935650E-005
                   128 -6.928885375775330E-004
                   129 -4.699624484663200E-012
                   130  6.028247607768890E-005
                   131  3.594243106920480E-004
                   132 -3.478542607748410E-012
                   133 -1.386853280459980E-004
                   134  8.170032200380010E-004
                   135 -1.951148043624086E-005
                   136  1.395705151959920E-012
                   137  6.687052617159450E-007
                   138 -9.246616416034760E-007
                   139  4.498869690972830E-012
                   140 -2.054734039978738E-004
                   141 -8.452933854497610E-012
                   142  1.563609889068340E-004
                   143  1.327660933781692E-005
                   144 -1.344862738804520E-011
                   145 -4.057440441627558E-005
                   146 -9.187170375250562E-013
                   147  2.890033797879272E-006
                   148 -1.078035639083482E-005
                   149 -6.339641317884360E-013
                   150 -8.174236795122614E-013
                   151 -4.497065930053148E-006
                   152 -1.547046499155160E-004
                   153 -6.351744526001269E-005
                   154  1.072285631111600E-004
                   155  1.574262478016530E-004
                   156  3.744928171503170E-012
                   157 -3.059668123058290E-005
                   158 -7.149304942387870E-004
                   159 -5.335827999116250E-012
                   160 -5.604853957740180E-005
                   161  3.408134553047410E-004
                   162 -5.167203177363010E-012
                   163  2.417036750914240E-004
                   164  6.797298514919930E-004
                   165 -1.727433313126018E-005
                   166 -3.783225813004020E-012
                   167 -1.412728259999450E-006
                   168 -1.054199239980244E-006
                   169 -8.540340008456090E-013
                   170 -1.914489781832687E-004
                   171  1.009759609636040E-011
                   172 -1.466684405853060E-004
                   173  2.089317681163780E-005
                   174 -5.340319965323450E-012
                   175 -3.845785831678946E-005
                   176 -1.565417255585044E-012
                   177 -3.432045890430448E-006
                   178 -9.546616647484240E-006
                   179  2.107295641558340E-013
                   180 -3.270286254895851E-014
                   181  3.811891756680853E-006
                   182 -1.195581699846770E-004
                   183 -3.168510184036400E-004
                   184  3.752811578758950E-005
                   185  1.400486093145290E-004
                   186  3.794322663089430E-013
                   187 -2.825121328086490E-006
                   188 -4.807518512634550E-005
                   189  6.886311313441320E-012
                   190  1.074684298404240E-005
                   191  3.053345664876740E-005
                   192  3.028525011221260E-012
                   193  8.348395644402210E-005
                   194  5.344062515682510E-007
                   195  1.795783260158628E-005
                   196  2.628817920514380E-012
                   197 -7.745418845126450E-008
                   198  8.154951025787899E-006
                   199  4.871971651105990E-013
                   200  5.387564408733892E-005
                   201 -3.441875954729820E-012
                   202 -8.087901380435580E-006
                   203  5.701268364901100E-005
                   204 -1.338325798649840E-011
                   205 -9.179280681484051E-006
                   206 -9.708672841041117E-013
                   207  3.340899933665117E-007
                   208 -2.596502899314800E-007
                   209  2.674078670266800E-012
                   210  1.710448095605397E-012
                   211 -2.288784362934922E-007
                   212  1.649750611782850E-003
                   213 -1.132075266512050E-003
                   214 -3.464137641061510E-012
                   215  3.796787882226240E-004
                   216  3.059112137961060E-004
                   217  2.658596796989060E-003
                   218 -1.685664568924720E-003
                   219  3.135878872808320E-012
                   220 -4.283151047168710E-004
                   221  3.439371534566140E-004
                   222 -5.302924397869141E-004
                   223 -3.069803665179850E-004
                   224 -2.100234864467170E-012
                   225 -1.138106479962350E-005
                   226 -3.895183101428680E-005
                   227 -5.571780987736470E-004
                   228 -2.443429917279250E-004
                   229  2.367880754081960E-012
                   230  1.239684824073560E-005
                   231 -3.735305797896710E-005
                   232 -1.965454590722810E-004
                   233 -4.304772756706600E-004
                   234 -3.112969115362560E-012
                   235 -3.428998356150230E-006
                   236  2.930111458416770E-006
                   237 -2.038443956403430E-004
                   238 -4.401175219766360E-004
                   239  3.024868464933850E-012
                   240  3.001863894201260E-006
                   241  1.640162376964360E-006
                   242  5.778925517929600E-005
                   243 -1.107617274276280E-004
                   244  1.252357280503530E-012
                   245 -2.900757616948070E-007
                   246  1.478269002286030E-005
 Sym= __2_a__
 Ene=  0.000000000000000E+000
 Spin= Alpha
 Occup=    2.00000000000000     
                     1 -5.283830419779090E-005
                     2 -2.538235514897390E-004
                     3  2.592148626847750E-003
                     4  1.222812121210700E-004
                     5  1.255966576890880E-003
                     6  1.427969101157590E-011
                     7 -5.673665222303720E-005
                     8  3.058938574087760E-003
                     9  1.038409635229000E-012
                    10 -1.351334613073710E-005
                    11 -7.077323493834809E-005
                    12 -8.714578372841911E-012
                    13  3.403335110285510E-005
                    14 -5.004368807695720E-004
                    15  4.240755332687899E-005
                    16 -2.859408090767660E-012
                    17 -3.660970263839780E-006
                    18  6.566480309901460E-005
                    19 -1.421839308421550E-013
                    20 -1.972047500725451E-004
                    21  5.669472826241860E-012
                    22  1.449352252994170E-005
                    23 -2.753570336985660E-004
                    24  1.395934819034180E-012
                    25  1.824342649123950E-004
                    26  6.274122926781403E-012
                    27 -5.235654518869928E-006
                    28 -5.713702503932200E-006
                    29 -2.690307441177450E-013
                    30 -6.902854855018714E-013
                    31 -4.680818601064713E-006
                    32   1.00105408073457     
                    33  9.328242547593790E-003
                    34  2.644975491075960E-003
                    35 -7.838867027540389E-003
                    36  3.506286363693760E-012
                    37 -6.611467467677100E-006
                    38 -4.213764330294350E-003
                    39 -4.863670970970780E-012
                    40 -3.445356655861200E-006
                    41  1.007878406609770E-003
                    42 -3.630593102335850E-012
                    43  2.168895905562580E-005
                    44  4.426021356176930E-003
                    45  4.780037475675552E-004
                    46 -2.245139410216420E-012
                    47 -3.489434470628980E-006
                    48 -4.250805644448580E-004
                    49  1.436021286985650E-012
                    50  5.407672420900501E-004
                    51  1.091085746441530E-011
                    52  2.713181805026640E-005
                    53  9.171841856657400E-004
                    54 -7.252605509108270E-016
                    55  3.841466564988714E-004
                    56 -3.424029533988240E-012
                    57 -2.905244376340399E-006
                    58 -2.006460854318600E-004
                    59  2.495532269249010E-013
                    60  2.302945901756001E-012
                    61  1.905637783251822E-007
                    62  7.339542002702470E-003
                    63 -2.070969777188410E-003
                    64 -2.734581447584930E-004
                    65  3.024249797457490E-003
                    66  1.467104825711330E-011
                    67  6.560934120232560E-005
                    68  2.638693977334720E-005
                    69 -1.935198076484320E-011
                    70  6.140204078168110E-004
                    71  2.723226557596900E-005
                    72  2.334035196843080E-012
                    73 -2.074545779264600E-003
                    74  9.613494237402540E-005
                    75 -1.280014489763662E-005
                    76  2.570992267467220E-013
                    77  1.216123786931450E-005
                    78  3.031511088569240E-005
                    79 -3.329513762997280E-012
                    80  7.463906255364939E-004
                    81 -2.245661324599210E-012
                    82 -4.018574036418090E-004
                    83 -2.019669555812340E-005
                    84  2.026977069047300E-012
                    85  7.378829632399562E-005
                    86 -3.508828878986017E-012
                    87  4.557581649457011E-005
                    88 -1.284652147451306E-004
                    89  3.024036819505970E-012
                    90 -1.475785068097765E-012
                    91  5.011168239865117E-005
                    92  7.391029352525810E-003
                    93 -2.082316101470660E-003
                    94 -2.745154934389220E-004
                    95  3.018804290314680E-003
                    96 -7.891914313734060E-013
                    97 -6.061547123717370E-005
                    98  2.893180829236010E-005
                    99 -2.831916719070280E-012
                   100 -5.986647257532640E-004
                   101  3.320087124640830E-005
                   102 -5.200898104721050E-012
                   103  2.089130856209660E-003
                   104  1.133059736480650E-004
                   105 -1.389035502327553E-005
                   106  2.108977782986160E-012
                   107 -1.367977029396500E-005
                   108  3.041598656669560E-005
                   109 -1.097742676896210E-013
                   110  7.632387170779169E-004
                   111 -1.202809987725650E-011
                   112  4.075054522660520E-004
                   113 -1.566116124510892E-005
                   114  4.753016833723470E-012
                   115  7.366655197009884E-005
                   116 -6.380323466870674E-013
                   117 -4.551483718393388E-005
                   118 -1.276463916292486E-004
                   119  1.207955826573280E-013
                   120  1.466330966321437E-012
                   121 -4.863313105353668E-005
                   122 -2.270732020581190E-004
                   123 -7.361240942657051E-004
                   124  2.247643709456090E-004
                   125 -1.084314391739130E-004
                   126 -7.327137211778481E-012
                   127 -1.395962327517960E-005
                   128 -2.815433380893130E-004
                   129  7.384238392304729E-012
                   130 -2.372899581678260E-005
                   131  5.326492608046810E-004
                   132 -5.358574420691890E-012
                   133  3.239233065898620E-004
                   134  7.426006741534360E-004
                   135 -1.344524969166500E-005
                   136  8.442955875535340E-013
                   137  5.231612753514570E-005
                   138  1.445546382215410E-005
                   139 -1.152551838669120E-013
                   140 -2.864040462694537E-004
                   141 -1.095713186481980E-011
                   142 -2.113270656192780E-004
                   143 -1.242869047587156E-005
                   144 -6.087176735656820E-012
                   145  1.352306749531447E-006
                   146  2.650210418936134E-012
                   147 -4.258186782840121E-005
                   148 -4.008965880318940E-005
                   149  2.033219244978170E-012
                   150 -6.169023274257010E-013
                   151 -5.432998621193472E-006
                   152 -2.233128620251460E-004
                   153 -7.369867862651510E-004
                   154  2.263353372755150E-004
                   155 -1.190204100144220E-004
                   156 -1.116242867422960E-011
                   157  1.441887092052430E-005
                   158 -2.817512492303730E-004
                   159  1.464671753643980E-011
                   160  1.629438730244260E-005