[Molden Format]
[Atoms] AU
  N     1    7     0.0000000000    0.0000000000   -4.2907334100        
  C     2    6     0.0000000000    0.0000000000   -1.7772236300        
  C     3    6     0.0000000000   -2.3389203600   -0.4111016300        
  C     4    6     0.0000000000    2.3389203600   -0.4111016300        
  C     5    6     0.0000000000   -2.2998668500    2.1639215300        
  C     6    6     0.0000000000    2.2998668500    2.1639215300        
  C     7    6     0.0000000000    0.0000000000    3.4755251800        
  H     8    1     0.0000000000   -1.9299607200   -5.4813572000        
  H     9    1     0.0000000000    1.7691306600   -5.3821385500        
  H    10    1     0.0000000000   -4.0745407300   -1.4447408500        
  H    11    1     0.0000000000    4.0745407300   -1.4447408500        
  H    12    1     0.0000000000   -4.0420632100    3.1963889500        
  H    13    1     0.0000000000    4.0420632100    3.1963889500        
  H    14    1     0.0000000000    0.0000000000    5.5020335600        
[5D]
[7F]
[GTO]
  1  0
   s    12 1.00
  0.114200D+05  0.172695D-04
  0.171200D+04  0.134411D-03
  0.389300D+03  0.694561D-03
  0.110000D+03  0.278531D-02
  0.355700D+02  0.863457D-02
  0.125400D+02  0.199805D-01
  0.464400D+01  0.262908D-01
  0.129300D+01 -0.243845D-01
  0.511800D+00 -0.924934D-01
  0.178700D+00 -0.339683D+00
  0.246240D-01  0.345111D+00
  0.112530D-01  0.752750D+00
   s    10 1.00
  0.114200D+05  0.523000D-03
  0.171200D+04  0.404500D-02
  0.389300D+03  0.207750D-01
  0.110000D+03  0.807269D-01
  0.355700D+02  0.233074D+00
  0.125400D+02  0.433501D+00
  0.464400D+01  0.347472D+00
  0.129300D+01  0.412620D-01
  0.511800D+00 -0.850799D-02
  0.178700D+00  0.238400D-02
   s    10 1.00
  0.114200D+05 -0.115000D-03
  0.171200D+04 -0.895000D-03
  0.389300D+03 -0.462400D-02
  0.110000D+03 -0.185280D-01
  0.355700D+02 -0.573390D-01
  0.125400D+02 -0.132076D+00
  0.464400D+01 -0.172510D+00
  0.129300D+01  0.151814D+00
  0.511800D+00  0.599944D+00
  0.178700D+00  0.387462D+00
   s     1 1.00
  0.129300D+01  0.100000D+01
   s     1 1.00
  0.178700D+00  0.100000D+01
   p     5 1.00
  0.266300D+02  0.146700D-01
  0.594800D+01  0.917640D-01
  0.174200D+01  0.298683D+00
  0.555000D+00  0.498487D+00
  0.172500D+00  0.337023D+00
   p     1 1.00
  0.174200D+01  0.100000D+01
   p     1 1.00
  0.555000D+00  0.100000D+01
   d     1 1.00
  0.165400D+01  0.100000D+01
   d     1 1.00
  0.469000D+00  0.100000D+01
   f     1 1.00
  0.109300D+01  0.100000D+01
  
  2  0
   s    10 1.00
  0.823600D+04  0.531000D-03
  0.123500D+04  0.410800D-02
  0.280800D+03  0.210870D-01
  0.792700D+02  0.818530D-01
  0.255900D+02  0.234817D+00
  0.899700D+01  0.434401D+00
  0.331900D+01  0.346129D+00
  0.905900D+00  0.393780D-01
  0.364300D+00 -0.898300D-02
  0.128500D+00  0.238500D-02
   s    10 1.00
  0.823600D+04 -0.113000D-03
  0.123500D+04 -0.878000D-03
  0.280800D+03 -0.454000D-02
  0.792700D+02 -0.181330D-01
  0.255900D+02 -0.557600D-01
  0.899700D+01 -0.126895D+00
  0.331900D+01 -0.170352D+00
  0.905900D+00  0.140382D+00
  0.364300D+00  0.598684D+00
  0.128500D+00  0.395389D+00
   s     1 1.00
  0.905900D+00  0.100000D+01
   s     1 1.00
  0.364300D+00  0.100000D+01
   p     5 1.00
  0.187100D+02  0.140310D-01
  0.413300D+01  0.868660D-01
  0.120000D+01  0.290216D+00
  0.382700D+00  0.501008D+00
  0.120900D+00  0.343406D+00
   p     1 1.00
  0.382700D+00  0.100000D+01
   p     1 1.00
  0.120900D+00  0.100000D+01
   d     1 1.00
  0.109700D+01  0.100000D+01
   d     1 1.00
  0.318000D+00  0.100000D+01
   f     1 1.00
  0.761000D+00  0.100000D+01
  
  3  0
   s    10 1.00
  0.823600D+04  0.531000D-03
  0.123500D+04  0.410800D-02
  0.280800D+03  0.210870D-01
  0.792700D+02  0.818530D-01
  0.255900D+02  0.234817D+00
  0.899700D+01  0.434401D+00
  0.331900D+01  0.346129D+00
  0.905900D+00  0.393780D-01
  0.364300D+00 -0.898300D-02
  0.128500D+00  0.238500D-02
   s    10 1.00
  0.823600D+04 -0.113000D-03
  0.123500D+04 -0.878000D-03
  0.280800D+03 -0.454000D-02
  0.792700D+02 -0.181330D-01
  0.255900D+02 -0.557600D-01
  0.899700D+01 -0.126895D+00
  0.331900D+01 -0.170352D+00
  0.905900D+00  0.140382D+00
  0.364300D+00  0.598684D+00
  0.128500D+00  0.395389D+00
   s     1 1.00
  0.905900D+00  0.100000D+01
   s     1 1.00
  0.364300D+00  0.100000D+01
   p     5 1.00
  0.187100D+02  0.140310D-01
  0.413300D+01  0.868660D-01
  0.120000D+01  0.290216D+00
  0.382700D+00  0.501008D+00
  0.120900D+00  0.343406D+00
   p     1 1.00
  0.382700D+00  0.100000D+01
   p     1 1.00
  0.120900D+00  0.100000D+01
   d     1 1.00
  0.109700D+01  0.100000D+01
   d     1 1.00
  0.318000D+00  0.100000D+01
   f     1 1.00
  0.761000D+00  0.100000D+01
  
  4  0
   s    10 1.00
  0.823600D+04  0.531000D-03
  0.123500D+04  0.410800D-02
  0.280800D+03  0.210870D-01
  0.792700D+02  0.818530D-01
  0.255900D+02  0.234817D+00
  0.899700D+01  0.434401D+00
  0.331900D+01  0.346129D+00
  0.905900D+00  0.393780D-01
  0.364300D+00 -0.898300D-02
  0.128500D+00  0.238500D-02
   s    10 1.00
  0.823600D+04 -0.113000D-03
  0.123500D+04 -0.878000D-03
  0.280800D+03 -0.454000D-02
  0.792700D+02 -0.181330D-01
  0.255900D+02 -0.557600D-01
  0.899700D+01 -0.126895D+00
  0.331900D+01 -0.170352D+00
  0.905900D+00  0.140382D+00
  0.364300D+00  0.598684D+00
  0.128500D+00  0.395389D+00
   s     1 1.00
  0.905900D+00  0.100000D+01
   s     1 1.00
  0.364300D+00  0.100000D+01
   p     5 1.00
  0.187100D+02  0.140310D-01
  0.413300D+01  0.868660D-01
  0.120000D+01  0.290216D+00
  0.382700D+00  0.501008D+00
  0.120900D+00  0.343406D+00
   p     1 1.00
  0.382700D+00  0.100000D+01
   p     1 1.00
  0.120900D+00  0.100000D+01
   d     1 1.00
  0.109700D+01  0.100000D+01
   d     1 1.00
  0.318000D+00  0.100000D+01
   f     1 1.00
  0.761000D+00  0.100000D+01
  
  5  0
   s    10 1.00
  0.823600D+04  0.531000D-03
  0.123500D+04  0.410800D-02
  0.280800D+03  0.210870D-01
  0.792700D+02  0.818530D-01
  0.255900D+02  0.234817D+00
  0.899700D+01  0.434401D+00
  0.331900D+01  0.346129D+00
  0.905900D+00  0.393780D-01
  0.364300D+00 -0.898300D-02
  0.128500D+00  0.238500D-02
   s    10 1.00
  0.823600D+04 -0.113000D-03
  0.123500D+04 -0.878000D-03
  0.280800D+03 -0.454000D-02
  0.792700D+02 -0.181330D-01
  0.255900D+02 -0.557600D-01
  0.899700D+01 -0.126895D+00
  0.331900D+01 -0.170352D+00
  0.905900D+00  0.140382D+00
  0.364300D+00  0.598684D+00
  0.128500D+00  0.395389D+00
   s     1 1.00
  0.905900D+00  0.100000D+01
   s     1 1.00
  0.364300D+00  0.100000D+01
   p     5 1.00
  0.187100D+02  0.140310D-01
  0.413300D+01  0.868660D-01
  0.120000D+01  0.290216D+00
  0.382700D+00  0.501008D+00
  0.120900D+00  0.343406D+00
   p     1 1.00
  0.382700D+00  0.100000D+01
   p     1 1.00
  0.120900D+00  0.100000D+01
   d     1 1.00
  0.109700D+01  0.100000D+01
   d     1 1.00
  0.318000D+00  0.100000D+01
   f     1 1.00
  0.761000D+00  0.100000D+01
  
  6  0
   s    10 1.00
  0.823600D+04  0.531000D-03
  0.123500D+04  0.410800D-02
  0.280800D+03  0.210870D-01
  0.792700D+02  0.818530D-01
  0.255900D+02  0.234817D+00
  0.899700D+01  0.434401D+00
  0.331900D+01  0.346129D+00
  0.905900D+00  0.393780D-01
  0.364300D+00 -0.898300D-02
  0.128500D+00  0.238500D-02
   s    10 1.00
  0.823600D+04 -0.113000D-03
  0.123500D+04 -0.878000D-03
  0.280800D+03 -0.454000D-02
  0.792700D+02 -0.181330D-01
  0.255900D+02 -0.557600D-01
  0.899700D+01 -0.126895D+00
  0.331900D+01 -0.170352D+00
  0.905900D+00  0.140382D+00
  0.364300D+00  0.598684D+00
  0.128500D+00  0.395389D+00
   s     1 1.00
  0.905900D+00  0.100000D+01
   s     1 1.00
  0.364300D+00  0.100000D+01
   p     5 1.00
  0.187100D+02  0.140310D-01
  0.413300D+01  0.868660D-01
  0.120000D+01  0.290216D+00
  0.382700D+00  0.501008D+00
  0.120900D+00  0.343406D+00
   p     1 1.00
  0.382700D+00  0.100000D+01
   p     1 1.00
  0.120900D+00  0.100000D+01
   d     1 1.00
  0.109700D+01  0.100000D+01
   d     1 1.00
  0.318000D+00  0.100000D+01
   f     1 1.00
  0.761000D+00  0.100000D+01
  
  7  0
   s    10 1.00
  0.823600D+04  0.531000D-03
  0.123500D+04  0.410800D-02
  0.280800D+03  0.210870D-01
  0.792700D+02  0.818530D-01
  0.255900D+02  0.234817D+00
  0.899700D+01  0.434401D+00
  0.331900D+01  0.346129D+00
  0.905900D+00  0.393780D-01
  0.364300D+00 -0.898300D-02
  0.128500D+00  0.238500D-02
   s    10 1.00
  0.823600D+04 -0.113000D-03
  0.123500D+04 -0.878000D-03
  0.280800D+03 -0.454000D-02
  0.792700D+02 -0.181330D-01
  0.255900D+02 -0.557600D-01
  0.899700D+01 -0.126895D+00
  0.331900D+01 -0.170352D+00
  0.905900D+00  0.140382D+00
  0.364300D+00  0.598684D+00
  0.128500D+00  0.395389D+00
   s     1 1.00
  0.905900D+00  0.100000D+01
   s     1 1.00
  0.364300D+00  0.100000D+01
   p     5 1.00
  0.187100D+02  0.140310D-01
  0.413300D+01  0.868660D-01
  0.120000D+01  0.290216D+00
  0.382700D+00  0.501008D+00
  0.120900D+00  0.343406D+00
   p     1 1.00
  0.382700D+00  0.100000D+01
   p     1 1.00
  0.120900D+00  0.100000D+01
   d     1 1.00
  0.109700D+01  0.100000D+01
   d     1 1.00
  0.318000D+00  0.100000D+01
   f     1 1.00
  0.761000D+00  0.100000D+01
  
  8  0
   s     4 1.00
  0.130100D+02  0.196850D-01
  0.196200D+01  0.137977D+00
  0.444600D+00  0.478148D+00
  0.122000D+00  0.501240D+00
   s     1 1.00
  0.122000D+00  0.100000D+01
   p     1 1.00
  0.727000D+00  0.100000D+01
  
  9  0
   s     4 1.00
  0.130100D+02  0.196850D-01
  0.196200D+01  0.137977D+00
  0.444600D+00  0.478148D+00
  0.122000D+00  0.501240D+00
   s     1 1.00
  0.122000D+00  0.100000D+01
   p     1 1.00
  0.727000D+00  0.100000D+01
  
 10  0
   s     4 1.00
  0.130100D+02  0.196850D-01
  0.196200D+01  0.137977D+00
  0.444600D+00  0.478148D+00
  0.122000D+00  0.501240D+00
   s     1 1.00
  0.122000D+00  0.100000D+01
   p     1 1.00
  0.727000D+00  0.100000D+01
  
 11  0
   s     4 1.00
  0.130100D+02  0.196850D-01
  0.196200D+01  0.137977D+00
  0.444600D+00  0.478148D+00
  0.122000D+00  0.501240D+00
   s     1 1.00
  0.122000D+00  0.100000D+01
   p     1 1.00
  0.727000D+00  0.100000D+01
  
 12  0
   s     4 1.00
  0.130100D+02  0.196850D-01
  0.196200D+01  0.137977D+00
  0.444600D+00  0.478148D+00
  0.122000D+00  0.501240D+00
   s     1 1.00
  0.122000D+00  0.100000D+01
   p     1 1.00
  0.727000D+00  0.100000D+01
  
 13  0
   s     4 1.00
  0.130100D+02  0.196850D-01
  0.196200D+01  0.137977D+00
  0.444600D+00  0.478148D+00
  0.122000D+00  0.501240D+00
   s     1 1.00
  0.122000D+00  0.100000D+01
   p     1 1.00
  0.727000D+00  0.100000D+01
  
 14  0
   s     4 1.00
  0.130100D+02  0.196850D-01
  0.196200D+01  0.137977D+00
  0.444600D+00  0.478148D+00
  0.122000D+00  0.501240D+00
   s     1 1.00
  0.122000D+00  0.100000D+01
   p     1 1.00
  0.727000D+00  0.100000D+01
  
[MO]
 Sym= __1_A__
 Ene=   1.00000000000000     
 Spin= Alpha
 Occup=    1.00000000000000     
                     1  1.522814654289787E-007
                     2  0.998418295864106     
                     3  6.794052449611233E-003
                     4  1.728825618987041E-003
                     5  2.281571914993679E-003
                     6 -2.033516117919131E-011
                     7  3.174680580486620E-004
                     8  4.873616827524165E-003
                     9  4.781741567902883E-012
                    10  4.647106927649622E-005
                    11 -7.385238484008978E-005
                    12  1.021017410115726E-011
                    13 -1.253900576783655E-004
                    14 -4.480863710491866E-004
                    15  2.693379517919431E-004
                    16 -6.660718136135054E-013
                    17 -3.268408682965984E-005
                    18 -1.431261673884009E-005
                    19  1.790266213840140E-013
                    20  1.008132814412922E-004
                    21 -6.618512845948900E-013
                    22  5.620921204343178E-005
                    23  5.194336771157890E-004
                    24 -3.138113468517571E-012
                    25 -1.303717020716153E-004
                    26 -2.134999144003765E-012
                    27  3.005687975591727E-006
                    28  2.445359548081650E-005
                    29  5.231791781701507E-013
                    30 -4.125074249759005E-013
                    31 -5.117591720583546E-006
                    32 -3.344582939879975E-004
                    33  2.450445191901390E-003
                    34  1.279825306439703E-004
                    35 -1.929521262796140E-004
                    36 -2.417186301639915E-012
                    37 -2.596321435704486E-005
                    38 -6.397033674511865E-003
                    39 -3.261511579136815E-012
                    40  1.797407259308122E-005
                    41  2.064412702211328E-004
                    42  2.151117093416233E-012
                    43 -1.008607482550465E-004
                    44  4.704629209454306E-003
                    45  3.237905751729500E-004
                    46  1.007401240282731E-013
                    47 -8.667630351483809E-006
                    48  1.266119770874059E-004
                    49 -2.987699669403974E-012
                    50  1.572262084593036E-004
                    51 -1.566963283405799E-012
                    52  4.899034205140302E-005
                    53 -3.767317989473716E-004
                    54  1.492925950780439E-012
                    55 -9.094523094234480E-005
                    56 -1.486636472362256E-012
                    57  4.644536509203056E-006
                    58  6.072479254562340E-005
                    59  1.263305770768028E-012
                    60 -9.392298729850262E-013
                    61 -9.453658545105530E-009
                    62 -2.215591860067998E-004
                    63 -1.553081101930061E-003
                    64  4.359005881037237E-005
                    65  6.572318211387499E-004
                    66 -1.422226047941199E-011
                    67 -7.647771503894547E-004
                    68  8.316222548456258E-004
                    69  1.366232315455191E-011
                    70  5.164220384578051E-006
                    71  5.942742345052548E-004
                    72  2.398245915981105E-013
                    73 -7.850815526194065E-004
                    74 -1.436890747680082E-004
                    75  8.419289136850034E-005
                    76 -2.725416650849609E-012
                    77 -6.170595101054768E-006
                    78  3.351593808963352E-005
                    79 -2.424397683200314E-012
                    80  6.474917933042796E-006
                    81 -3.405068322221966E-012
                    82  1.416599776135905E-004
                    83 -1.896084582661376E-005
                    84  5.548914842929540E-012
                    85 -9.525393852592194E-005
                    86 -3.945496690513647E-012
                    87 -2.959120399746644E-005
                    88  2.056542196308462E-005
                    89  5.479144765583136E-013
                    90  4.434236160451831E-012
                    91  1.213484302364502E-005
                    92 -2.232457158350385E-004
                    93 -1.620716133256418E-003
                    94  6.331277915384613E-005
                    95  5.676272328416265E-004
                    96  3.326096286981143E-012
                    97  7.860727059351445E-004
                    98  8.975502797384811E-004
                    99  4.622472046492906E-012
                   100  5.103228443300611E-005
                   101  5.831461747644221E-004
                   102  2.219211882142220E-012
                   103  6.665876998123586E-004
                   104 -3.035219189375720E-004
                   105  8.543838460028644E-005
                   106  7.803692654711176E-013
                   107  2.873426021069933E-006
                   108  3.827111512276468E-005
                   109 -1.930540704258127E-012
                   110  2.332027978707368E-005
                   111  6.899192322075357E-012
                   112 -1.353800605998567E-004
                   113 -6.065518440989928E-006
                   114  3.415412608169413E-013
                   115 -8.985186810561924E-005
                   116  2.193504727442056E-012
                   117  2.491471308642799E-005
                   118  1.941472172728978E-005
                   119  1.298701760966286E-012
                   120 -1.195126377555210E-012
                   121 -1.295782060464873E-005
                   122 -1.557392112607769E-004
                   123 -8.639727124390682E-005
                   124  1.103934579530999E-004
                   125  1.599424571353233E-004
                   126  3.291366993675727E-012
                   127  3.017708994935647E-005
                   128 -6.928885375775326E-004
                   129 -4.699624484663196E-012
                   130  6.028247607768886E-005
                   131  3.594243106920483E-004
                   132 -3.478542607748409E-012
                   133 -1.386853280459982E-004
                   134  8.170032200380013E-004
                   135 -1.951148043624084E-005
                   136  1.395705151959921E-012
                   137  6.687052617159453E-007
                   138 -9.246616416034754E-007
                   139  4.498869690972829E-012
                   140 -2.054734039978737E-004
                   141 -8.452933854497613E-012
                   142  1.563609889068339E-004
                   143  1.327660933781692E-005
                   144 -1.344862738804519E-011
                   145 -4.057440441627553E-005
                   146 -9.187170375250592E-013
                   147  2.890033797879273E-006
                   148 -1.078035639083482E-005
                   149 -6.339641317884359E-013
                   150 -8.174236795122610E-013
                   151 -4.497065930053148E-006
                   152 -1.547046499155164E-004
                   153 -6.351744526001267E-005
                   154  1.072285631111595E-004
                   155  1.574262478016531E-004
                   156  3.744928171503171E-012
                   157 -3.059668123058295E-005
                   158 -7.149304942387870E-004
                   159 -5.335827999116249E-012
                   160 -5.604853957740183E-005
                   161  3.408134553047409E-004
                   162 -5.167203177363006E-012
                   163  2.417036750914242E-004
                   164  6.797298514919935E-004
                   165 -1.727433313126017E-005
                   166 -3.783225813004016E-012
                   167 -1.412728259999450E-006
                   168 -1.054199239980244E-006
                   169 -8.540340008456088E-013
                   170 -1.914489781832688E-004
                   171  1.009759609636037E-011
                   172 -1.466684405853061E-004
                   173  2.089317681163790E-005
                   174 -5.340319965323451E-012
                   175 -3.845785831678942E-005
                   176 -1.565417255585044E-012
                   177 -3.432045890430448E-006
                   178 -9.546616647484241E-006
                   179  2.107295641558345E-013
                   180 -3.270286254895855E-014
                   181  3.811891756680852E-006
                   182 -1.195581699846766E-004
                   183 -3.168510184036404E-004
                   184  3.752811578758946E-005
                   185  1.400486093145288E-004
                   186  3.794322663089431E-013
                   187 -2.825121328086485E-006
                   188 -4.807518512634547E-005
                   189  6.886311313441318E-012
                   190  1.074684298404236E-005
                   191  3.053345664876738E-005
                   192  3.028525011221259E-012
                   193  8.348395644402209E-005
                   194  5.344062515682506E-007
                   195  1.795783260158627E-005
                   196  2.628817920514379E-012
                   197 -7.745418845126450E-008
                   198  8.154951025787894E-006
                   199  4.871971651105994E-013
                   200  5.387564408733905E-005
                   201 -3.441875954729821E-012
                   202 -8.087901380435577E-006
                   203  5.701268364901092E-005
                   204 -1.338325798649842E-011
                   205 -9.179280681484041E-006
                   206 -9.708672841041105E-013
                   207  3.340899933665119E-007
                   208 -2.596502899314790E-007
                   209  2.674078670266805E-012
                   210  1.710448095605403E-012
                   211 -2.288784362934922E-007
                   212  1.649750611782849E-003
                   213 -1.132075266512050E-003
                   214 -3.464137641061513E-012
                   215  3.796787882226238E-004
                   216  3.059112137961063E-004
                   217  2.658596796989059E-003
                   218 -1.685664568924725E-003
                   219  3.135878872808316E-012
                   220 -4.283151047168710E-004
                   221  3.439371534566144E-004
                   222 -5.302924397869139E-004
                   223 -3.069803665179850E-004
                   224 -2.100234864467169E-012
                   225 -1.138106479962348E-005
                   226 -3.895183101428680E-005
                   227 -5.571780987736469E-004
                   228 -2.443429917279252E-004
                   229  2.367880754081961E-012
                   230  1.239684824073556E-005
                   231 -3.735305797896708E-005
                   232 -1.965454590722810E-004
                   233 -4.304772756706599E-004
                   234 -3.112969115362555E-012
                   235 -3.428998356150226E-006
                   236  2.930111458416768E-006
                   237 -2.038443956403431E-004
                   238 -4.401175219766362E-004
                   239  3.024868464933849E-012
                   240  3.001863894201265E-006
                   241  1.640162376964356E-006
                   242  5.778925517929605E-005
                   243 -1.107617274276279E-004
                   244  1.252357280503531E-012
                   245 -2.900757616948068E-007
                   246  1.478269002286026E-005
 Sym= __2_A__
 Ene=   2.00000000000000     
 Spin= Alpha
 Occup=    1.00000000000000     
                     1 -5.283830419779086E-005
                     2 -2.538235514897385E-004
                     3  2.592148626847752E-003
                     4  1.222812121210703E-004
                     5  1.255966576890877E-003
                     6  1.427969101157588E-011
                     7 -5.673665222303724E-005
                     8  3.058938574087763E-003
                     9  1.038409635229004E-012
                    10 -1.351334613073713E-005
                    11 -7.077323493834814E-005
                    12 -8.714578372841906E-012
                    13  3.403335110285510E-005
                    14 -5.004368807695724E-004
                    15  4.240755332687916E-005
                    16 -2.859408090767656E-012
                    17 -3.660970263839784E-006
                    18  6.566480309901454E-005
                    19 -1.421839308421547E-013
                    20 -1.972047500725450E-004
                    21  5.669472826241863E-012
                    22  1.449352252994174E-005
                    23 -2.753570336985654E-004
                    24  1.395934819034180E-012
                    25  1.824342649123951E-004
                    26  6.274122926781404E-012
                    27 -5.235654518869931E-006
                    28 -5.713702503932194E-006
                    29 -2.690307441177453E-013
                    30 -6.902854855018720E-013
                    31 -4.680818601064711E-006
                    32   1.00105408073457     
                    33  9.328242547593789E-003
                    34  2.644975491075962E-003
                    35 -7.838867027540388E-003
                    36  3.506286363693758E-012
                    37 -6.611467467677097E-006
                    38 -4.213764330294346E-003
                    39 -4.863670970970776E-012
                    40 -3.445356655861201E-006
                    41  1.007878406609771E-003
                    42 -3.630593102335854E-012
                    43  2.168895905562576E-005
                    44  4.426021356176932E-003
                    45  4.780037475675566E-004
                    46 -2.245139410216423E-012
                    47 -3.489434470628985E-006
                    48 -4.250805644448586E-004
                    49  1.436021286985654E-012
                    50  5.407672420900514E-004
                    51  1.091085746441527E-011
                    52  2.713181805026636E-005
                    53  9.171841856657406E-004
                    54 -7.252605509108267E-016
                    55  3.841466564988709E-004
                    56 -3.424029533988242E-012
                    57 -2.905244376340398E-006
                    58 -2.006460854318606E-004
                    59  2.495532269249005E-013
                    60  2.302945901756003E-012
                    61  1.905637783251821E-007
                    62  7.339542002702471E-003
                    63 -2.070969777188415E-003
                    64 -2.734581447584932E-004
                    65  3.024249797457485E-003
                    66  1.467104825711331E-011
                    67  6.560934120232562E-005
                    68  2.638693977334721E-005
                    69 -1.935198076484323E-011
                    70  6.140204078168110E-004
                    71  2.723226557596901E-005
                    72  2.334035196843082E-012
                    73 -2.074545779264601E-003
                    74  9.613494237402542E-005
                    75 -1.280014489763662E-005
                    76  2.570992267467219E-013
                    77  1.216123786931449E-005
                    78  3.031511088569240E-005
                    79 -3.329513762997284E-012
                    80  7.463906255364933E-004
                    81 -2.245661324599213E-012
                    82 -4.018574036418087E-004
                    83 -2.019669555812340E-005
                    84  2.026977069047302E-012
                    85  7.378829632399567E-005
                    86 -3.508828878986019E-012
                    87  4.557581649457012E-005
                    88 -1.284652147451307E-004
                    89  3.024036819505966E-012
                    90 -1.475785068097765E-012
                    91  5.011168239865133E-005
                    92  7.391029352525814E-003
                    93 -2.082316101470662E-003
                    94 -2.745154934389223E-004
                    95  3.018804290314678E-003
                    96 -7.891914313734058E-013
                    97 -6.061547123717367E-005
                    98  2.893180829236005E-005
                    99 -2.831916719070278E-012
                   100 -5.986647257532643E-004
                   101  3.320087124640829E-005
                   102 -5.200898104721046E-012
                   103  2.089130856209663E-003
                   104  1.133059736480646E-004
                   105 -1.389035502327554E-005
                   106  2.108977782986164E-012
                   107 -1.367977029396500E-005
                   108  3.041598656669566E-005
                   109 -1.097742676896205E-013
                   110  7.632387170779155E-004
                   111 -1.202809987725647E-011
                   112  4.075054522660519E-004
                   113 -1.566116124510892E-005
                   114  4.753016833723470E-012
                   115  7.366655197009891E-005
                   116 -6.380323466870649E-013
                   117 -4.551483718393390E-005
                   118 -1.276463916292485E-004
                   119  1.207955826573279E-013
                   120  1.466330966321437E-012
                   121 -4.863313105353667E-005
                   122 -2.270732020581189E-004
                   123 -7.361240942657051E-004
                   124  2.247643709456089E-004
                   125 -1.084314391739128E-004
                   126 -7.327137211778482E-012
                   127 -1.395962327517962E-005
                   128 -2.815433380893132E-004
                   129  7.384238392304734E-012
                   130 -2.372899581678263E-005
                   131  5.326492608046805E-004
                   132 -5.358574420691892E-012
                   133  3.239233065898625E-004
                   134  7.426006741534358E-004
                   135 -1.344524969166501E-005
                   136  8.442955875535339E-013
                   137  5.231612753514571E-005
                   138  1.445546382215409E-005
                   139 -1.152551838669123E-013
                   140 -2.864040462694537E-004
                   141 -1.095713186481982E-011
                   142 -2.113270656192778E-004
                   143 -1.242869047587156E-005
                   144 -6.087176735656818E-012
                   145  1.352306749531447E-006
                   146  2.650210418936132E-012
                   147 -4.258186782840123E-005
                   148 -4.008965880318936E-005
                   149  2.033219244978175E-012
                   150 -6.169023274257015E-013
                   151 -5.432998621193458E-006
                   152 -2.233128620251457E-004
                   153 -7.369867862651514E-004
                   154  2.263353372755153E-004
                   155 -1.190204100144217E-004
                   156 -1.116242867422960E-011
                   157  1.441887092052430E-005
                   158 -2.817512492303732E-004
                   159  1.464671753643982E-011
                   160  1.629438730244256E-005