[Molden Format]
[Atoms] AU
  N     1    7    -4.4601327200    0.1486572200   -0.1184978700        
  C     2    6    -1.7697692600   -0.0178246200   -0.0513527000        
  C     3    6    -0.4049632100    0.0537693500   -2.3080742100        
  C     4    6    -0.4516315300   -0.0680771300    2.2265614800        
  C     5    6     2.2064366400    0.0402910900   -2.2706693700        
  C     6    6     2.1684365600   -0.0456213700    2.2424499400        
  C     7    6     3.5116798600   -0.0004931400    0.0015521300        
  H     8    1    -5.1891228800   -1.2018107800   -1.2958080300        
  H     9    1    -5.1742367900   -0.1986951300    1.6459381300        
  H    10    1    -1.3974308700    0.1305530700   -4.0744845300        
  H    11    1    -1.4698955800   -0.1310894600    3.9798662700        
  H    12    1     3.2283621900    0.0819243000   -4.0232026000        
  H    13    1     3.1531626900   -0.0822027400    4.0163560600        
  H    14    1     5.5396175700    0.0036655700    0.0192965900        
[5D]
[7F]
[GTO]
  1  0
   s    12 1.00
  0.114200D+05  0.172695D-04
  0.171200D+04  0.134411D-03
  0.389300D+03  0.694561D-03
  0.110000D+03  0.278531D-02
  0.355700D+02  0.863457D-02
  0.125400D+02  0.199805D-01
  0.464400D+01  0.262908D-01
  0.129300D+01 -0.243845D-01
  0.511800D+00 -0.924934D-01
  0.178700D+00 -0.339683D+00
  0.246240D-01  0.345111D+00
  0.112530D-01  0.752750D+00
   s    10 1.00
  0.114200D+05  0.523000D-03
  0.171200D+04  0.404500D-02
  0.389300D+03  0.207750D-01
  0.110000D+03  0.807269D-01
  0.355700D+02  0.233074D+00
  0.125400D+02  0.433501D+00
  0.464400D+01  0.347472D+00
  0.129300D+01  0.412620D-01
  0.511800D+00 -0.850799D-02
  0.178700D+00  0.238400D-02
   s    10 1.00
  0.114200D+05 -0.115000D-03
  0.171200D+04 -0.895000D-03
  0.389300D+03 -0.462400D-02
  0.110000D+03 -0.185280D-01
  0.355700D+02 -0.573390D-01
  0.125400D+02 -0.132076D+00
  0.464400D+01 -0.172510D+00
  0.129300D+01  0.151814D+00
  0.511800D+00  0.599944D+00
  0.178700D+00  0.387462D+00
   s     1 1.00
  0.129300D+01  0.100000D+01
   s     1 1.00
  0.178700D+00  0.100000D+01
   p     5 1.00
  0.266300D+02  0.146700D-01
  0.594800D+01  0.917640D-01
  0.174200D+01  0.298683D+00
  0.555000D+00  0.498487D+00
  0.172500D+00  0.337023D+00
   p     1 1.00
  0.174200D+01  0.100000D+01
   p     1 1.00
  0.555000D+00  0.100000D+01
   d     1 1.00
  0.165400D+01  0.100000D+01
   d     1 1.00
  0.469000D+00  0.100000D+01
   f     1 1.00
  0.109300D+01  0.100000D+01
  
  2  0
   s    10 1.00
  0.823600D+04  0.531000D-03
  0.123500D+04  0.410800D-02
  0.280800D+03  0.210870D-01
  0.792700D+02  0.818530D-01
  0.255900D+02  0.234817D+00
  0.899700D+01  0.434401D+00
  0.331900D+01  0.346129D+00
  0.905900D+00  0.393780D-01
  0.364300D+00 -0.898300D-02
  0.128500D+00  0.238500D-02
   s    10 1.00
  0.823600D+04 -0.113000D-03
  0.123500D+04 -0.878000D-03
  0.280800D+03 -0.454000D-02
  0.792700D+02 -0.181330D-01
  0.255900D+02 -0.557600D-01
  0.899700D+01 -0.126895D+00
  0.331900D+01 -0.170352D+00
  0.905900D+00  0.140382D+00
  0.364300D+00  0.598684D+00
  0.128500D+00  0.395389D+00
   s     1 1.00
  0.905900D+00  0.100000D+01
   s     1 1.00
  0.364300D+00  0.100000D+01
   p     5 1.00
  0.187100D+02  0.140310D-01
  0.413300D+01  0.868660D-01
  0.120000D+01  0.290216D+00
  0.382700D+00  0.501008D+00
  0.120900D+00  0.343406D+00
   p     1 1.00
  0.382700D+00  0.100000D+01
   p     1 1.00
  0.120900D+00  0.100000D+01
   d     1 1.00
  0.109700D+01  0.100000D+01
   d     1 1.00
  0.318000D+00  0.100000D+01
   f     1 1.00
  0.761000D+00  0.100000D+01
  
  3  0
   s    10 1.00
  0.823600D+04  0.531000D-03
  0.123500D+04  0.410800D-02
  0.280800D+03  0.210870D-01
  0.792700D+02  0.818530D-01
  0.255900D+02  0.234817D+00
  0.899700D+01  0.434401D+00
  0.331900D+01  0.346129D+00
  0.905900D+00  0.393780D-01
  0.364300D+00 -0.898300D-02
  0.128500D+00  0.238500D-02
   s    10 1.00
  0.823600D+04 -0.113000D-03
  0.123500D+04 -0.878000D-03
  0.280800D+03 -0.454000D-02
  0.792700D+02 -0.181330D-01
  0.255900D+02 -0.557600D-01
  0.899700D+01 -0.126895D+00
  0.331900D+01 -0.170352D+00
  0.905900D+00  0.140382D+00
  0.364300D+00  0.598684D+00
  0.128500D+00  0.395389D+00
   s     1 1.00
  0.905900D+00  0.100000D+01
   s     1 1.00
  0.364300D+00  0.100000D+01
   p     5 1.00
  0.187100D+02  0.140310D-01
  0.413300D+01  0.868660D-01
  0.120000D+01  0.290216D+00
  0.382700D+00  0.501008D+00
  0.120900D+00  0.343406D+00
   p     1 1.00
  0.382700D+00  0.100000D+01
   p     1 1.00
  0.120900D+00  0.100000D+01
   d     1 1.00
  0.109700D+01  0.100000D+01
   d     1 1.00
  0.318000D+00  0.100000D+01
   f     1 1.00
  0.761000D+00  0.100000D+01
  
  4  0
   s    10 1.00
  0.823600D+04  0.531000D-03
  0.123500D+04  0.410800D-02
  0.280800D+03  0.210870D-01
  0.792700D+02  0.818530D-01
  0.255900D+02  0.234817D+00
  0.899700D+01  0.434401D+00
  0.331900D+01  0.346129D+00
  0.905900D+00  0.393780D-01
  0.364300D+00 -0.898300D-02
  0.128500D+00  0.238500D-02
   s    10 1.00
  0.823600D+04 -0.113000D-03
  0.123500D+04 -0.878000D-03
  0.280800D+03 -0.454000D-02
  0.792700D+02 -0.181330D-01
  0.255900D+02 -0.557600D-01
  0.899700D+01 -0.126895D+00
  0.331900D+01 -0.170352D+00
  0.905900D+00  0.140382D+00
  0.364300D+00  0.598684D+00
  0.128500D+00  0.395389D+00
   s     1 1.00
  0.905900D+00  0.100000D+01
   s     1 1.00
  0.364300D+00  0.100000D+01
   p     5 1.00
  0.187100D+02  0.140310D-01
  0.413300D+01  0.868660D-01
  0.120000D+01  0.290216D+00
  0.382700D+00  0.501008D+00
  0.120900D+00  0.343406D+00
   p     1 1.00
  0.382700D+00  0.100000D+01
   p     1 1.00
  0.120900D+00  0.100000D+01
   d     1 1.00
  0.109700D+01  0.100000D+01
   d     1 1.00
  0.318000D+00  0.100000D+01
   f     1 1.00
  0.761000D+00  0.100000D+01
  
  5  0
   s    10 1.00
  0.823600D+04  0.531000D-03
  0.123500D+04  0.410800D-02
  0.280800D+03  0.210870D-01
  0.792700D+02  0.818530D-01
  0.255900D+02  0.234817D+00
  0.899700D+01  0.434401D+00
  0.331900D+01  0.346129D+00
  0.905900D+00  0.393780D-01
  0.364300D+00 -0.898300D-02
  0.128500D+00  0.238500D-02
   s    10 1.00
  0.823600D+04 -0.113000D-03
  0.123500D+04 -0.878000D-03
  0.280800D+03 -0.454000D-02
  0.792700D+02 -0.181330D-01
  0.255900D+02 -0.557600D-01
  0.899700D+01 -0.126895D+00
  0.331900D+01 -0.170352D+00
  0.905900D+00  0.140382D+00
  0.364300D+00  0.598684D+00
  0.128500D+00  0.395389D+00
   s     1 1.00
  0.905900D+00  0.100000D+01
   s     1 1.00
  0.364300D+00  0.100000D+01
   p     5 1.00
  0.187100D+02  0.140310D-01
  0.413300D+01  0.868660D-01
  0.120000D+01  0.290216D+00
  0.382700D+00  0.501008D+00
  0.120900D+00  0.343406D+00
   p     1 1.00
  0.382700D+00  0.100000D+01
   p     1 1.00
  0.120900D+00  0.100000D+01
   d     1 1.00
  0.109700D+01  0.100000D+01
   d     1 1.00
  0.318000D+00  0.100000D+01
   f     1 1.00
  0.761000D+00  0.100000D+01
  
  6  0
   s    10 1.00
  0.823600D+04  0.531000D-03
  0.123500D+04  0.410800D-02
  0.280800D+03  0.210870D-01
  0.792700D+02  0.818530D-01
  0.255900D+02  0.234817D+00
  0.899700D+01  0.434401D+00
  0.331900D+01  0.346129D+00
  0.905900D+00  0.393780D-01
  0.364300D+00 -0.898300D-02
  0.128500D+00  0.238500D-02
   s    10 1.00
  0.823600D+04 -0.113000D-03
  0.123500D+04 -0.878000D-03
  0.280800D+03 -0.454000D-02
  0.792700D+02 -0.181330D-01
  0.255900D+02 -0.557600D-01
  0.899700D+01 -0.126895D+00
  0.331900D+01 -0.170352D+00
  0.905900D+00  0.140382D+00
  0.364300D+00  0.598684D+00
  0.128500D+00  0.395389D+00
   s     1 1.00
  0.905900D+00  0.100000D+01
   s     1 1.00
  0.364300D+00  0.100000D+01
   p     5 1.00
  0.187100D+02  0.140310D-01
  0.413300D+01  0.868660D-01
  0.120000D+01  0.290216D+00
  0.382700D+00  0.501008D+00
  0.120900D+00  0.343406D+00
   p     1 1.00
  0.382700D+00  0.100000D+01
   p     1 1.00
  0.120900D+00  0.100000D+01
   d     1 1.00
  0.109700D+01  0.100000D+01
   d     1 1.00
  0.318000D+00  0.100000D+01
   f     1 1.00
  0.761000D+00  0.100000D+01
  
  7  0
   s    10 1.00
  0.823600D+04  0.531000D-03
  0.123500D+04  0.410800D-02
  0.280800D+03  0.210870D-01
  0.792700D+02  0.818530D-01
  0.255900D+02  0.234817D+00
  0.899700D+01  0.434401D+00
  0.331900D+01  0.346129D+00
  0.905900D+00  0.393780D-01
  0.364300D+00 -0.898300D-02
  0.128500D+00  0.238500D-02
   s    10 1.00
  0.823600D+04 -0.113000D-03
  0.123500D+04 -0.878000D-03
  0.280800D+03 -0.454000D-02
  0.792700D+02 -0.181330D-01
  0.255900D+02 -0.557600D-01
  0.899700D+01 -0.126895D+00
  0.331900D+01 -0.170352D+00
  0.905900D+00  0.140382D+00
  0.364300D+00  0.598684D+00
  0.128500D+00  0.395389D+00
   s     1 1.00
  0.905900D+00  0.100000D+01
   s     1 1.00
  0.364300D+00  0.100000D+01
   p     5 1.00
  0.187100D+02  0.140310D-01
  0.413300D+01  0.868660D-01
  0.120000D+01  0.290216D+00
  0.382700D+00  0.501008D+00
  0.120900D+00  0.343406D+00
   p     1 1.00
  0.382700D+00  0.100000D+01
   p     1 1.00
  0.120900D+00  0.100000D+01
   d     1 1.00
  0.109700D+01  0.100000D+01
   d     1 1.00
  0.318000D+00  0.100000D+01
   f     1 1.00
  0.761000D+00  0.100000D+01
  
  8  0
   s     4 1.00
  0.130100D+02  0.196850D-01
  0.196200D+01  0.137977D+00
  0.444600D+00  0.478148D+00
  0.122000D+00  0.501240D+00
   s     1 1.00
  0.122000D+00  0.100000D+01
   p     1 1.00
  0.727000D+00  0.100000D+01
  
  9  0
   s     4 1.00
  0.130100D+02  0.196850D-01
  0.196200D+01  0.137977D+00
  0.444600D+00  0.478148D+00
  0.122000D+00  0.501240D+00
   s     1 1.00
  0.122000D+00  0.100000D+01
   p     1 1.00
  0.727000D+00  0.100000D+01
  
 10  0
   s     4 1.00
  0.130100D+02  0.196850D-01
  0.196200D+01  0.137977D+00
  0.444600D+00  0.478148D+00
  0.122000D+00  0.501240D+00
   s     1 1.00
  0.122000D+00  0.100000D+01
   p     1 1.00
  0.727000D+00  0.100000D+01
  
 11  0
   s     4 1.00
  0.130100D+02  0.196850D-01
  0.196200D+01  0.137977D+00
  0.444600D+00  0.478148D+00
  0.122000D+00  0.501240D+00
   s     1 1.00
  0.122000D+00  0.100000D+01
   p     1 1.00
  0.727000D+00  0.100000D+01
  
 12  0
   s     4 1.00
  0.130100D+02  0.196850D-01
  0.196200D+01  0.137977D+00
  0.444600D+00  0.478148D+00
  0.122000D+00  0.501240D+00
   s     1 1.00
  0.122000D+00  0.100000D+01
   p     1 1.00
  0.727000D+00  0.100000D+01
  
 13  0
   s     4 1.00
  0.130100D+02  0.196850D-01
  0.196200D+01  0.137977D+00
  0.444600D+00  0.478148D+00
  0.122000D+00  0.501240D+00
   s     1 1.00
  0.122000D+00  0.100000D+01
   p     1 1.00
  0.727000D+00  0.100000D+01
  
 14  0
   s     4 1.00
  0.130100D+02  0.196850D-01
  0.196200D+01  0.137977D+00
  0.444600D+00  0.478148D+00
  0.122000D+00  0.501240D+00
   s     1 1.00
  0.122000D+00  0.100000D+01
   p     1 1.00
  0.727000D+00  0.100000D+01
  
[MO]
 Sym= __1_a__
 Ene=  0.000000000000000E+000
 Spin= Alpha
 Occup=    2.00000000000000     
                     1  2.271080784905260E-004
                     2  0.998072021028698     
                     3  3.452239094942030E-003
                     4  1.924677908659670E-003
                     5  5.670671094464370E-003
                     6  5.543524559832950E-003
                     7 -4.603659263321160E-003
                     8  2.088443510398750E-003
                     9 -7.844184726403420E-004
                    10  2.588635258029340E-004
                    11 -2.382149481217170E-004
                    12 -1.434130002837520E-003
                    13  3.006337097072690E-003
                    14 -1.259290892359490E-003
                    15 -7.484046915424736E-006
                    16 -3.354837936422920E-005
                    17 -1.346702560855540E-006
                    18  6.927897447676540E-005
                    19  5.962068366625820E-005
                    20 -3.453712057709246E-004
                    21  2.446664979526010E-004
                    22 -1.216603003987390E-004
                    23  6.907271128050459E-005
                    24 -4.569766391533150E-004
                    25 -4.774684440378135E-005
                    26 -1.342474282839007E-004
                    27 -3.427321036537231E-005
                    28  5.412145140775400E-005
                    29 -2.005802125739940E-005
                    30 -1.031641014979889E-004
                    31 -4.436374962319272E-005
                    32 -3.789236476130500E-004
                    33  8.942742216750689E-004
                    34  2.436190284864590E-004
                    35 -1.013160834363310E-004
                    36 -4.266292027115290E-003
                    37 -3.449182150507040E-005
                    38 -1.237605182347270E-004
                    39  2.085460020662880E-004
                    40 -2.497493361298330E-005
                    41  3.710598661279150E-004
                    42  4.838006294426280E-003
                    43  7.782295611711390E-004
                    44 -1.756601010363910E-003
                    45 -2.182012839405207E-004
                    46  1.875091468242900E-005
                    47  5.912517077838260E-006
                    48  2.038460521208060E-004
                    49  4.669194083521750E-005
                    50  4.779604136201179E-004
                    51  2.836142583761850E-004
                    52 -4.095539244104180E-005
                    53 -6.437510480311640E-005
                    54 -3.490197400020310E-004
                    55  1.970838127288855E-005
                    56 -5.832716576449061E-005
                    57  7.438063924415284E-006
                    58  1.504973651984848E-005
                    59  1.624996109241200E-006
                    60 -3.477231127588429E-005
                    61  3.309916511390331E-005
                    62 -5.202123711165370E-004
                    63 -2.298091027579760E-003
                    64  2.742593494412930E-005
                    65  1.611446816678860E-003
                    66  4.942575458067760E-004
                    67 -9.394597070937150E-005
                    68 -6.234969444914080E-004
                    69  7.706991308233340E-004
                    70  6.702017730756730E-005
                    71  3.255025157706190E-004
                    72  6.097284675478950E-004
                    73 -2.986123827782640E-004
                    74 -1.220446719000910E-003
                    75 -7.384328342301682E-005
                    76 -2.009951755736110E-005
                    77  1.923884694238840E-005
                    78  7.190901051751960E-005
                    79 -7.646089665040041E-006
                    80  2.768442719229570E-004
                    81  1.895796281191170E-004
                    82 -4.177835947339960E-005
                    83 -6.544449840597180E-005
                    84  3.633281087619860E-005
                    85 -1.596267535983956E-005
                    86 -9.650407482048325E-005
                    87  2.036815739686755E-005
                    88 -4.323846452676160E-006
                    89  1.318451243264360E-005
                    90 -6.129572163884234E-005
                    91 -1.191571480162976E-005
                    92 -1.950748244668650E-004
                    93 -1.232342485316950E-003
                    94  1.729970800358520E-004
                    95  4.061091579959210E-005
                    96  6.074757110276140E-004
                    97 -9.759226594974360E-005
                    98  5.169758729974180E-004
                    99  4.112253558700650E-004
                   100  8.448112382805371E-005
                   101  1.121630151238220E-004
                   102 -1.511600606864220E-003
                   103 -3.303768531726810E-004
                   104  3.789608474106510E-004
                   105 -7.174000398708472E-005
                   106  6.544646462525700E-006
                   107 -1.432191353508510E-005
                   108  5.160167378815500E-005
                   109 -9.948752599254090E-006
                   110  7.977419313294051E-005
                   111 -1.926598904129820E-004
                   112  1.396848018235130E-005
                   113 -1.824894013442242E-004
                   114  5.952928554600030E-005
                   115 -3.770856139405992E-006
                   116 -1.275436307530327E-005
                   117  1.970525835168631E-005
                   118  1.624645130465922E-005
                   119 -1.153995087125960E-005
                   120 -2.981167461655880E-005
                   121 -8.332261812395324E-006
                   122 -2.422217689777380E-004
                   123 -4.939201117487490E-004
                   124  8.786899952071190E-005
                   125  6.669662524151660E-004
                   126 -5.488128772665410E-004
                   127 -3.995739939741810E-005
                   128 -1.746217127993870E-006
                   129  4.269748657514670E-004
                   130 -2.260820059923340E-005
                   131  1.477832851202790E-004
                   132  1.895511340178590E-003
                   133  1.434195573041620E-004
                   134  1.590395017721290E-004
                   135  1.698364692860750E-005
                   136  1.863792081324110E-006
                   137 -4.257123935567960E-006
                   138 -8.864429734803899E-006
                   139  9.554293136833501E-006
                   140  1.744658033647383E-004
                   141  2.783342098398420E-004
                   142  9.466776950202439E-006
                   143 -2.898381813788160E-004
                   144 -2.259245057643570E-005
                   145 -2.364108114178623E-005
                   146 -1.867981338705713E-005
                   147  1.161212182608511E-006
                   148 -8.362230590061581E-006
                   149 -2.934779464993740E-006
                   150 -6.413431894238838E-005
                   151 -1.100953242376301E-006
                   152 -1.500806141703950E-004
                   153 -1.949506355704180E-004
                   154  1.391207432880870E-005
                   155  4.811308779067070E-004
                   156 -4.974660270917070E-004
                   157 -3.481579209993620E-005
                   158 -4.835459156525580E-005
                   159  5.273820113221380E-006
                   160 -3.057209562243510E-005
                   161  1.300261436066770E-004
                   162 -2.094790697711550E-004
                   163  1.118199145086580E-004
                   164  6.768683412643420E-004
                   165 -7.818492766047037E-006
                   166  3.936192040213860E-006
                   167  3.278013479460600E-006
                   168  9.061264919387741E-006
                   169  7.408755859808840E-006
                   170 -2.039918825798404E-005
                   171 -1.080475788565080E-004
                   172 -2.006751932756870E-006
                   173 -7.140989946004541E-005
                   174 -2.326312549163270E-006
                   175 -9.909557551518218E-007
                   176 -1.068046416237176E-005
                   177  2.710199348156240E-006
                   178 -2.181255344840680E-007
                   179  7.067056455740910E-007
                   180 -2.393293768665648E-005
                   181 -3.133909927801699E-006
                   182 -1.321282414073890E-004
                   183 -4.088993736063920E-004
                   184  2.934504989928170E-005
                   185  1.637176867587460E-004
                   186 -1.725576424952740E-005
                   187 -4.093438087887290E-005
                   188 -4.935151369161360E-005
                   189  9.221284349841219E-005
                   190  1.588933867403200E-005
                   191  2.127785986509940E-004
                   192 -3.782447951135090E-004
                   193 -1.161215720689040E-004
                   194  1.157778608591660E-003
                   195 -9.634804468879517E-006
                   196  1.838041936365910E-006
                   197 -2.406344420045700E-008
                   198  3.733995046333920E-006
                   199 -1.766293750312420E-006
                   200 -1.180735775670384E-004
                   201 -1.752808562869180E-004
                   202  2.945583598524190E-006
                   203  6.487806138945701E-005
                   204  1.780071687898470E-005
                   205  2.033849823563431E-006
                   206  1.255125843598845E-006
                   207  2.409756657867224E-006
                   208  1.387912685857986E-005
                   209 -6.859567083734800E-007
                   210 -5.374285484517379E-006
                   211 -2.606059504209493E-006
                   212  2.440883736066840E-003
                   213 -2.032347929305800E-003
                   214  1.591241467732570E-004
                   215  3.809808718237830E-004
                   216  2.263450947703390E-004
                   217  2.780590623966660E-003
                   218 -2.200257143012570E-003
                   219  1.913299753502160E-004
                   220  1.655173869231680E-004
                   221 -4.625565457997190E-004
                   222 -5.171853077157880E-004
                   223 -2.734447365301950E-004
                   224 -7.502320537953689E-005
                   225  8.379827168812760E-006
                   226  3.474538762313410E-005
                   227 -4.419039615968890E-004
                   228 -3.649011240893460E-004
                   229 -4.756651947640330E-005
                   230  1.295004363547100E-005
                   231 -4.285386168047760E-005
                   232 -8.142284534281119E-005
                   233 -5.717210154718770E-004
                   234  9.890722540756671E-007
                   235 -1.085316398134450E-006
                   236 -4.153571650026470E-006
                   237 -1.357440275701580E-004
                   238 -3.687083569852660E-004
                   239  1.117134266787220E-005
                   240 -2.563726139341100E-006
                   241  1.510869241297960E-005
                   242  1.250041630123940E-005
                   243  1.160314160038480E-004
                   244  2.985411966750520E-005
                   245  1.750191221350400E-006
                   246  1.307946905032340E-006
 Sym= __2_a__
 Ene=  0.000000000000000E+000
 Spin= Alpha
 Occup=    2.00000000000000     
                     1 -1.659691956700830E-005
                     2 -8.402528501343771E-005
                     3  1.914675930638110E-003
                     4 -1.470901425280600E-005
                     5  1.233006504355780E-003
                     6  1.878539470783900E-003
                     7  2.332960580556640E-004
                     8 -1.570450013612150E-004
                     9 -1.510225714776380E-004
                    10  9.933329837197980E-005
                    11 -1.694088377181660E-005
                    12  6.618629668407350E-005
                    13  7.387029116112350E-005
                    14  5.302373448111010E-005
                    15 -6.993696014997845E-005
                    16  9.169948771844749E-006
                    17 -6.920264827851620E-006
                    18  4.144106769824160E-005
                    19 -2.351277277968360E-006
                    20  1.709495110596991E-004
                    21 -5.234700736700640E-005
                    22  2.312552717021760E-005
                    23  1.049142890786612E-004
                    24 -4.891825359495220E-005
                    25 -4.599757171058704E-005
                    26  1.365533607142230E-004
                    27 -3.873051813415941E-005
                    28 -9.011892987266980E-007
                    29  6.231276335015420E-007
                    30  1.284217712988042E-004
                    31  3.598314583016494E-005
                    32   1.00095781501240     
                    33  8.768733575173160E-003
                    34  2.794406079691980E-003
                    35 -8.252196994192050E-003
                    36 -2.517765750437770E-003
                    37  6.499368102751890E-004
                    38  1.069748021337090E-005
                    39  1.096580623552770E-003
                    40 -2.171686326928520E-004
                    41 -7.207324366183109E-005
                    42  3.367988848951710E-003
                    43 -1.216253708017820E-004
                    44 -1.478675707330540E-004
                    45  2.981515332920989E-004
                    46  1.537498095303460E-005
                    47 -1.293579917062630E-005
                    48  4.086815034660100E-004
                    49 -2.021739249062760E-005
                    50 -1.034992704571517E-003
                    51 -1.093311358608430E-004
                    52  5.565986752868110E-005
                    53 -1.215623201071558E-004
                    54  2.715277334322000E-005
                    55 -7.216176236825275E-006
                    56  3.064209016230570E-004
                    57 -8.951519806653585E-006
                    58 -1.085426179502204E-005
                    59 -3.452521900369130E-006
                    60  7.998623104603578E-005
                    61  1.696487317892761E-005
                    62  1.255490984031700E-002
                    63 -1.865319752028120E-003
                    64 -2.948872561546290E-004
                    65  3.051365891390930E-003
                    66 -1.433733937848660E-004
                    67  1.035125864097560E-004
                    68  2.747179772107500E-004
                    69  3.271137841669850E-005
                    70 -1.044431740111170E-005
                    71  4.471131075532800E-004
                    72  3.270257368362860E-004
                    73  2.475616214149240E-005
                    74 -1.854018751567000E-003
                    75 -9.938761056224663E-006
                    76  2.606108569577000E-005
                    77  9.166218797630670E-006
                    78 -3.757339579984780E-005
                    79 -4.432997166410670E-006
                    80 -4.461300212435169E-004
                    81 -4.395737293582380E-004
                    82  6.628647214784080E-006
                    83  7.767966443737400E-004
                    84  2.393509011708020E-006
                    85  4.860646387967897E-005
                    86  1.106543374557148E-004
                    87  6.664674952147752E-006
                    88 -1.602408242313090E-005
                    89 -1.235622400880820E-005
                    90 -2.598075202271594E-005
                    91  3.522107049482065E-006
                    92  1.351354093579410E-002
                    93 -1.802789352851400E-003
                    94 -3.295891984074050E-004
                    95  3.227099875539320E-003
                    96 -1.714088330713870E-004
                    97  1.204554313633110E-004
                    98 -2.637959082913850E-004
                    99  7.931153890525190E-006
                   100  1.900252200378710E-005
                   101 -5.925932258641590E-004
                   102  3.308916213993350E-005
                   103 -7.016932140908440E-005
                   104  1.781772885124580E-003
                   105 -6.426825553022558E-006
                   106 -2.087792335872080E-005
                   107 -5.684866348607910E-006
                   108 -3.416181770030100E-005
                   109 -4.242089442003230E-006
                   110 -3.783233279991666E-004
                   111  4.851889804236900E-004
                   112 -5.816052294403940E-006
                   113  7.336995518888140E-004
                   114 -9.889353167349320E-006
                   115 -5.152878816670106E-005
                   116  1.018583072306418E-004
                   117 -3.164845749214547E-006
                   118  1.881851562365576E-005
                   119  1.663278385747870E-006
                   120 -3.251817674425227E-005
                   121  4.914888541992974E-006
                   122 -1.503037298829790E-004
                   123 -7.425354267795920E-004
                   124  2.450809924556090E-004
                   125 -2.833066791600100E-004
                   126 -1.872871984107090E-004
                   127  2.386262353875580E-005
                   128 -4.965751910862430E-005
                   129  6.039037730454200E-004
                   130 -8.309640559703759E-006
                   131  6.841041676059170E-005
                   132  6.938552059054290E-004
                   133 -6.254744430919630E-006
                   134  3.884771030368790E-004
                   135  6.916190272344589E-008
                   136  4.161499239929420E-005
                   137  2.874333723440530E-007
                   138 -3.244043443651200E-005
                   139 -2.161909971469730E-006
                   140  1.975025704009072E-004
                   141 -2.610443731668540E-004
                   142  3.013752862340730E-006
                   143 -2.608697017780200E-004
                   144  5.048696222613050E-006
                   145 -1.848950102201998E-005
                   146  1.525200116290044E-005
                   147 -6.861228598732379E-007
                   148 -1.211459355515030E-005
                   149 -2.730747327989540E-006
                   150 -2.351938103516636E-005
                   151 -1.891157338675981E-008
                   152 -1.269838140365480E-004
                   153 -7.039313785229560E-004
                   154  2.563512299495490E-004
                   155 -3.441079466457290E-004
                   156 -1.765631353540780E-004
                   157  1.374502478793450E-005
                   158  3.600078265082820E-005
                   159  5.845032028509360E-004
                   160  4.961384984366030E-006