[Molden Format]
[Atoms] AU
  N     1    7    -0.0029026500   -0.0026920100   -4.3554729600        
  C     2    6    -0.0020348800   -0.0038702000   -1.7386868400        
  C     3    6     0.1016630700   -2.3231132900   -0.4140385600        
  C     4    6    -0.1048535500    2.3141790800   -0.4118821600        
  C     5    6     0.1779239000   -2.2915836800    2.1783822300        
  C     6    6    -0.1793949700    2.2803150300    2.1805591900        
  C     7    6    -0.0003062300   -0.0062172000    3.4740350900        
  H     8    1    -1.4328911700   -0.8675963600   -5.3689202300        
  H     9    1     1.4264136600    0.8631250000   -5.3690891700        
  H    10    1     0.2067909300   -4.0495537600   -1.4570210000        
  H    11    1    -0.2106726200    4.0415580100   -1.4532395800        
  H    12    1     0.3533159900   -4.0254823400    3.2094006900        
  H    13    1    -0.3541026800    4.0132845100    3.2132546900        
  H    14    1     0.0003664500   -0.0071305200    5.5025494900        
[5D]
[7F]
[GTO]
  1  0
   s    12 1.00
  0.114200D+05  0.172695D-04
  0.171200D+04  0.134411D-03
  0.389300D+03  0.694561D-03
  0.110000D+03  0.278531D-02
  0.355700D+02  0.863457D-02
  0.125400D+02  0.199805D-01
  0.464400D+01  0.262908D-01
  0.129300D+01 -0.243845D-01
  0.511800D+00 -0.924934D-01
  0.178700D+00 -0.339683D+00
  0.246240D-01  0.345111D+00
  0.112530D-01  0.752750D+00
   s    10 1.00
  0.114200D+05  0.523000D-03
  0.171200D+04  0.404500D-02
  0.389300D+03  0.207750D-01
  0.110000D+03  0.807269D-01
  0.355700D+02  0.233074D+00
  0.125400D+02  0.433501D+00
  0.464400D+01  0.347472D+00
  0.129300D+01  0.412620D-01
  0.511800D+00 -0.850799D-02
  0.178700D+00  0.238400D-02
   s    10 1.00
  0.114200D+05 -0.115000D-03
  0.171200D+04 -0.895000D-03
  0.389300D+03 -0.462400D-02
  0.110000D+03 -0.185280D-01
  0.355700D+02 -0.573390D-01
  0.125400D+02 -0.132076D+00
  0.464400D+01 -0.172510D+00
  0.129300D+01  0.151814D+00
  0.511800D+00  0.599944D+00
  0.178700D+00  0.387462D+00
   s     1 1.00
  0.129300D+01  0.100000D+01
   s     1 1.00
  0.178700D+00  0.100000D+01
   p     5 1.00
  0.266300D+02  0.146700D-01
  0.594800D+01  0.917640D-01
  0.174200D+01  0.298683D+00
  0.555000D+00  0.498487D+00
  0.172500D+00  0.337023D+00
   p     1 1.00
  0.174200D+01  0.100000D+01
   p     1 1.00
  0.555000D+00  0.100000D+01
   d     1 1.00
  0.165400D+01  0.100000D+01
   d     1 1.00
  0.469000D+00  0.100000D+01
   f     1 1.00
  0.109300D+01  0.100000D+01
  
  2  0
   s    10 1.00
  0.823600D+04  0.531000D-03
  0.123500D+04  0.410800D-02
  0.280800D+03  0.210870D-01
  0.792700D+02  0.818530D-01
  0.255900D+02  0.234817D+00
  0.899700D+01  0.434401D+00
  0.331900D+01  0.346129D+00
  0.905900D+00  0.393780D-01
  0.364300D+00 -0.898300D-02
  0.128500D+00  0.238500D-02
   s    10 1.00
  0.823600D+04 -0.113000D-03
  0.123500D+04 -0.878000D-03
  0.280800D+03 -0.454000D-02
  0.792700D+02 -0.181330D-01
  0.255900D+02 -0.557600D-01
  0.899700D+01 -0.126895D+00
  0.331900D+01 -0.170352D+00
  0.905900D+00  0.140382D+00
  0.364300D+00  0.598684D+00
  0.128500D+00  0.395389D+00
   s     1 1.00
  0.905900D+00  0.100000D+01
   s     1 1.00
  0.364300D+00  0.100000D+01
   p     5 1.00
  0.187100D+02  0.140310D-01
  0.413300D+01  0.868660D-01
  0.120000D+01  0.290216D+00
  0.382700D+00  0.501008D+00
  0.120900D+00  0.343406D+00
   p     1 1.00
  0.382700D+00  0.100000D+01
   p     1 1.00
  0.120900D+00  0.100000D+01
   d     1 1.00
  0.109700D+01  0.100000D+01
   d     1 1.00
  0.318000D+00  0.100000D+01
   f     1 1.00
  0.761000D+00  0.100000D+01
  
  3  0
   s    10 1.00
  0.823600D+04  0.531000D-03
  0.123500D+04  0.410800D-02
  0.280800D+03  0.210870D-01
  0.792700D+02  0.818530D-01
  0.255900D+02  0.234817D+00
  0.899700D+01  0.434401D+00
  0.331900D+01  0.346129D+00
  0.905900D+00  0.393780D-01
  0.364300D+00 -0.898300D-02
  0.128500D+00  0.238500D-02
   s    10 1.00
  0.823600D+04 -0.113000D-03
  0.123500D+04 -0.878000D-03
  0.280800D+03 -0.454000D-02
  0.792700D+02 -0.181330D-01
  0.255900D+02 -0.557600D-01
  0.899700D+01 -0.126895D+00
  0.331900D+01 -0.170352D+00
  0.905900D+00  0.140382D+00
  0.364300D+00  0.598684D+00
  0.128500D+00  0.395389D+00
   s     1 1.00
  0.905900D+00  0.100000D+01
   s     1 1.00
  0.364300D+00  0.100000D+01
   p     5 1.00
  0.187100D+02  0.140310D-01
  0.413300D+01  0.868660D-01
  0.120000D+01  0.290216D+00
  0.382700D+00  0.501008D+00
  0.120900D+00  0.343406D+00
   p     1 1.00
  0.382700D+00  0.100000D+01
   p     1 1.00
  0.120900D+00  0.100000D+01
   d     1 1.00
  0.109700D+01  0.100000D+01
   d     1 1.00
  0.318000D+00  0.100000D+01
   f     1 1.00
  0.761000D+00  0.100000D+01
  
  4  0
   s    10 1.00
  0.823600D+04  0.531000D-03
  0.123500D+04  0.410800D-02
  0.280800D+03  0.210870D-01
  0.792700D+02  0.818530D-01
  0.255900D+02  0.234817D+00
  0.899700D+01  0.434401D+00
  0.331900D+01  0.346129D+00
  0.905900D+00  0.393780D-01
  0.364300D+00 -0.898300D-02
  0.128500D+00  0.238500D-02
   s    10 1.00
  0.823600D+04 -0.113000D-03
  0.123500D+04 -0.878000D-03
  0.280800D+03 -0.454000D-02
  0.792700D+02 -0.181330D-01
  0.255900D+02 -0.557600D-01
  0.899700D+01 -0.126895D+00
  0.331900D+01 -0.170352D+00
  0.905900D+00  0.140382D+00
  0.364300D+00  0.598684D+00
  0.128500D+00  0.395389D+00
   s     1 1.00
  0.905900D+00  0.100000D+01
   s     1 1.00
  0.364300D+00  0.100000D+01
   p     5 1.00
  0.187100D+02  0.140310D-01
  0.413300D+01  0.868660D-01
  0.120000D+01  0.290216D+00
  0.382700D+00  0.501008D+00
  0.120900D+00  0.343406D+00
   p     1 1.00
  0.382700D+00  0.100000D+01
   p     1 1.00
  0.120900D+00  0.100000D+01
   d     1 1.00
  0.109700D+01  0.100000D+01
   d     1 1.00
  0.318000D+00  0.100000D+01
   f     1 1.00
  0.761000D+00  0.100000D+01
  
  5  0
   s    10 1.00
  0.823600D+04  0.531000D-03
  0.123500D+04  0.410800D-02
  0.280800D+03  0.210870D-01
  0.792700D+02  0.818530D-01
  0.255900D+02  0.234817D+00
  0.899700D+01  0.434401D+00
  0.331900D+01  0.346129D+00
  0.905900D+00  0.393780D-01
  0.364300D+00 -0.898300D-02
  0.128500D+00  0.238500D-02
   s    10 1.00
  0.823600D+04 -0.113000D-03
  0.123500D+04 -0.878000D-03
  0.280800D+03 -0.454000D-02
  0.792700D+02 -0.181330D-01
  0.255900D+02 -0.557600D-01
  0.899700D+01 -0.126895D+00
  0.331900D+01 -0.170352D+00
  0.905900D+00  0.140382D+00
  0.364300D+00  0.598684D+00
  0.128500D+00  0.395389D+00
   s     1 1.00
  0.905900D+00  0.100000D+01
   s     1 1.00
  0.364300D+00  0.100000D+01
   p     5 1.00
  0.187100D+02  0.140310D-01
  0.413300D+01  0.868660D-01
  0.120000D+01  0.290216D+00
  0.382700D+00  0.501008D+00
  0.120900D+00  0.343406D+00
   p     1 1.00
  0.382700D+00  0.100000D+01
   p     1 1.00
  0.120900D+00  0.100000D+01
   d     1 1.00
  0.109700D+01  0.100000D+01
   d     1 1.00
  0.318000D+00  0.100000D+01
   f     1 1.00
  0.761000D+00  0.100000D+01
  
  6  0
   s    10 1.00
  0.823600D+04  0.531000D-03
  0.123500D+04  0.410800D-02
  0.280800D+03  0.210870D-01
  0.792700D+02  0.818530D-01
  0.255900D+02  0.234817D+00
  0.899700D+01  0.434401D+00
  0.331900D+01  0.346129D+00
  0.905900D+00  0.393780D-01
  0.364300D+00 -0.898300D-02
  0.128500D+00  0.238500D-02
   s    10 1.00
  0.823600D+04 -0.113000D-03
  0.123500D+04 -0.878000D-03
  0.280800D+03 -0.454000D-02
  0.792700D+02 -0.181330D-01
  0.255900D+02 -0.557600D-01
  0.899700D+01 -0.126895D+00
  0.331900D+01 -0.170352D+00
  0.905900D+00  0.140382D+00
  0.364300D+00  0.598684D+00
  0.128500D+00  0.395389D+00
   s     1 1.00
  0.905900D+00  0.100000D+01
   s     1 1.00
  0.364300D+00  0.100000D+01
   p     5 1.00
  0.187100D+02  0.140310D-01
  0.413300D+01  0.868660D-01
  0.120000D+01  0.290216D+00
  0.382700D+00  0.501008D+00
  0.120900D+00  0.343406D+00
   p     1 1.00
  0.382700D+00  0.100000D+01
   p     1 1.00
  0.120900D+00  0.100000D+01
   d     1 1.00
  0.109700D+01  0.100000D+01
   d     1 1.00
  0.318000D+00  0.100000D+01
   f     1 1.00
  0.761000D+00  0.100000D+01
  
  7  0
   s    10 1.00
  0.823600D+04  0.531000D-03
  0.123500D+04  0.410800D-02
  0.280800D+03  0.210870D-01
  0.792700D+02  0.818530D-01
  0.255900D+02  0.234817D+00
  0.899700D+01  0.434401D+00
  0.331900D+01  0.346129D+00
  0.905900D+00  0.393780D-01
  0.364300D+00 -0.898300D-02
  0.128500D+00  0.238500D-02
   s    10 1.00
  0.823600D+04 -0.113000D-03
  0.123500D+04 -0.878000D-03
  0.280800D+03 -0.454000D-02
  0.792700D+02 -0.181330D-01
  0.255900D+02 -0.557600D-01
  0.899700D+01 -0.126895D+00
  0.331900D+01 -0.170352D+00
  0.905900D+00  0.140382D+00
  0.364300D+00  0.598684D+00
  0.128500D+00  0.395389D+00
   s     1 1.00
  0.905900D+00  0.100000D+01
   s     1 1.00
  0.364300D+00  0.100000D+01
   p     5 1.00
  0.187100D+02  0.140310D-01
  0.413300D+01  0.868660D-01
  0.120000D+01  0.290216D+00
  0.382700D+00  0.501008D+00
  0.120900D+00  0.343406D+00
   p     1 1.00
  0.382700D+00  0.100000D+01
   p     1 1.00
  0.120900D+00  0.100000D+01
   d     1 1.00
  0.109700D+01  0.100000D+01
   d     1 1.00
  0.318000D+00  0.100000D+01
   f     1 1.00
  0.761000D+00  0.100000D+01
  
  8  0
   s     4 1.00
  0.130100D+02  0.196850D-01
  0.196200D+01  0.137977D+00
  0.444600D+00  0.478148D+00
  0.122000D+00  0.501240D+00
   s     1 1.00
  0.122000D+00  0.100000D+01
   p     1 1.00
  0.727000D+00  0.100000D+01
  
  9  0
   s     4 1.00
  0.130100D+02  0.196850D-01
  0.196200D+01  0.137977D+00
  0.444600D+00  0.478148D+00
  0.122000D+00  0.501240D+00
   s     1 1.00
  0.122000D+00  0.100000D+01
   p     1 1.00
  0.727000D+00  0.100000D+01
  
 10  0
   s     4 1.00
  0.130100D+02  0.196850D-01
  0.196200D+01  0.137977D+00
  0.444600D+00  0.478148D+00
  0.122000D+00  0.501240D+00
   s     1 1.00
  0.122000D+00  0.100000D+01
   p     1 1.00
  0.727000D+00  0.100000D+01
  
 11  0
   s     4 1.00
  0.130100D+02  0.196850D-01
  0.196200D+01  0.137977D+00
  0.444600D+00  0.478148D+00
  0.122000D+00  0.501240D+00
   s     1 1.00
  0.122000D+00  0.100000D+01
   p     1 1.00
  0.727000D+00  0.100000D+01
  
 12  0
   s     4 1.00
  0.130100D+02  0.196850D-01
  0.196200D+01  0.137977D+00
  0.444600D+00  0.478148D+00
  0.122000D+00  0.501240D+00
   s     1 1.00
  0.122000D+00  0.100000D+01
   p     1 1.00
  0.727000D+00  0.100000D+01
  
 13  0
   s     4 1.00
  0.130100D+02  0.196850D-01
  0.196200D+01  0.137977D+00
  0.444600D+00  0.478148D+00
  0.122000D+00  0.501240D+00
   s     1 1.00
  0.122000D+00  0.100000D+01
   p     1 1.00
  0.727000D+00  0.100000D+01
  
 14  0
   s     4 1.00
  0.130100D+02  0.196850D-01
  0.196200D+01  0.137977D+00
  0.444600D+00  0.478148D+00
  0.122000D+00  0.501240D+00
   s     1 1.00
  0.122000D+00  0.100000D+01
   p     1 1.00
  0.727000D+00  0.100000D+01
  
[MO]
 Sym= __1_A__
 Ene=  0.000000000000000E+000
 Spin= Alpha
 Occup=    2.00000000000000     
                     1  6.189137517915639E-005
                     2  0.997772800241240     
                     3  1.230594110047821E-002
                     4  2.159474307778300E-003
                     5  1.003030669100987E-003
                     6  1.136406117158253E-006
                     7 -1.544809031417815E-006
                     8  3.397328571042806E-003
                     9 -9.512273406830426E-008
                    10  1.331637421171491E-007
                    11 -2.716418371365744E-004
                    12 -1.721438313016546E-007
                    13  2.007573306427821E-007
                    14 -5.119924719912093E-004
                    15  1.662177895110806E-004
                    16  1.294770724696941E-007
                    17 -1.747762566104128E-007
                    18  3.041691864966186E-005
                    19  9.594763762815921E-005
                    20  6.455972358360620E-005
                    21 -1.018815602187482E-007
                    22  1.835134517658459E-007
                    23 -2.299461159013996E-004
                    24 -4.644480612017814E-004
                    25 -1.772718790705301E-004
                    26  9.974130768250357E-008
                    27 -1.556518635705337E-007
                    28 -8.492890862990325E-006
                    29 -6.754647138172309E-005
                    30  4.102434423240283E-008
                    31 -2.305649102034261E-008
                    32 -2.133837809814315E-004
                    33  2.803344696062174E-003
                    34  1.000876451881879E-004
                    35 -5.456219112365760E-004
                    36 -2.233942720884301E-006
                    37  3.045742196405255E-006
                    38 -6.721793741853923E-003
                    39 -3.495128507601654E-008
                    40  5.858794838558284E-009
                    41 -1.395030448820781E-004
                    42  1.252485786173728E-006
                    43 -1.665522978547771E-006
                    44  3.807330827477566E-003
                    45  3.797741761341706E-004
                    46  1.801284400751373E-007
                    47 -3.298158197308688E-007
                    48  1.037153944167343E-004
                    49 -9.146196219866669E-006
                    50  6.199512593421956E-004
                    51  3.945361999562647E-007
                    52 -6.771526720162032E-007
                    53  2.583804784673058E-005
                    54  1.051777313280542E-004
                    55 -5.928632102274645E-005
                    56  1.072233062128467E-008
                    57 -9.197282747308048E-008
                    58  4.684787145949478E-005
                    59 -1.934700832357296E-005
                    60 -8.451760718427212E-009
                    61 -3.753424553243620E-008
                    62 -1.891539612102244E-004
                    63 -1.703279804071392E-003
                    64  2.119281905316643E-006
                    65  7.926983316316244E-004
                    66  4.296124154844305E-006
                    67 -8.867773986205248E-004
                    68  1.203017456398841E-003
                    69  4.841931651241776E-005
                    70  9.785762843407300E-005
                    71  1.848412437828380E-004
                    72  4.501844580624283E-005
                    73 -5.965097252542052E-004
                    74 -2.968442556041373E-004
                    75  9.205872195012111E-005
                    76  2.670929929548027E-006
                    77 -1.277573028095299E-005
                    78  3.420551409629442E-005
                    79  1.017380717140307E-006
                    80  4.050156428166250E-005
                    81 -1.826310780865413E-005
                    82  1.027642240478001E-005
                    83  1.173617692889182E-005
                    84  3.029708359574533E-005
                    85 -7.599346439814435E-005
                    86  6.786899172187310E-006
                    87 -7.152240100282557E-006
                    88  2.130264486687918E-005
                    89 -4.988810628512737E-006
                    90  2.447612186689892E-006
                    91  2.232805192827992E-005
                    92 -1.891163099717595E-004
                    93 -1.703129276749018E-003
                    94  2.288600577745452E-006
                    95  7.921653357025446E-004
                    96 -3.501437326893071E-006
                    97  8.857141304828482E-004
                    98  1.203931427828394E-003
                    99 -4.827276003537303E-005
                   100 -9.817324079270870E-005
                   101  1.841523244709994E-004
                   102 -4.517287984992370E-005
                   103  5.961828954027140E-004
                   104 -2.960989116704184E-004
                   105  9.204888450530790E-005
                   106 -2.586005444724973E-006
                   107  1.261827390228926E-005
                   108  3.421687146148966E-005
                   109  1.027421358917211E-006
                   110  4.000721395317600E-005
                   111  1.835101552703556E-005
                   112 -1.048420800416661E-005
                   113  1.164760239706356E-005
                   114  3.027000300545447E-005
                   115 -7.594898231717305E-005
                   116 -6.689025853877343E-006
                   117  6.962866047044823E-006
                   118  2.127421812373984E-005
                   119 -4.957620805386818E-006
                   120 -2.459908081384466E-006
                   121 -2.235440597332558E-005
                   122 -1.533618835524157E-004
                   123  2.826217560010619E-005
                   124  8.063457130527854E-005
                   125  2.459334595327992E-004
                   126 -7.303543410629377E-005
                   127  5.184326260872350E-005
                   128 -8.562504014433413E-004
                   129 -3.705605365026044E-006
                   130  2.110856354048682E-005
                   131  2.216012465585870E-004
                   132  1.661899515995856E-005
                   133 -4.435689302787624E-005
                   134  5.662590645052710E-004
                   135 -2.263351101755644E-006
                   136  1.845266385760120E-006
                   137  5.544627472780080E-006
                   138 -1.553643424077037E-006
                   139  1.603603742843542E-006
                   140 -1.333099460656059E-004
                   141 -1.332632893752593E-005
                   142  1.027319182480890E-004
                   143  3.355227088383176E-005
                   144 -5.920809807011071E-006
                   145 -2.564959556346874E-005
                   146 -4.271860444639694E-007
                   147 -4.928780233235231E-006
                   148 -8.227387236752234E-006
                   149 -1.455808054917629E-006
                   150 -9.964146499118329E-007
                   151 -2.446028203461693E-006
                   152 -1.538571922391959E-004
                   153  2.650421463906500E-005
                   154  8.011661633082231E-005
                   155  2.491383604886678E-004
                   156  7.245502110710541E-005
                   157 -5.100747387957532E-005
                   158 -8.563155058650181E-004
                   159  3.912907575679081E-006
                   160 -2.172412099190966E-005
                   161  2.212454384495721E-004
                   162 -1.629693236485003E-005
                   163  4.439890847992804E-005
                   164  5.664957670921231E-004
                   165 -2.214530174431783E-006
                   166 -1.848338021498131E-006
                   167 -5.550908354100838E-006
                   168 -1.615505371196313E-006
                   169  1.591410001859442E-006
                   170 -1.333620189620335E-004
                   171  1.315382993084480E-005
                   172 -1.028282524776123E-004
                   173  3.340831884834002E-005
                   174 -6.004634537919308E-006
                   175 -2.556726122850030E-005
                   176  4.803154399085028E-007
                   177  4.891352381356982E-006
                   178 -8.272483970613832E-006
                   179 -1.461700938724201E-006
                   180  1.006183697336216E-006
                   181  2.465019303858710E-006
                   182 -1.282245291698218E-004
                   183 -3.490813924265447E-004
                   184  2.423315927286440E-005
                   185  2.350744019272069E-004
                   186 -2.500378969234927E-008
                   187  1.151995102903687E-007
                   188 -4.321543256346656E-005
                   189  4.729355594305406E-008
                   190 -4.975748922883564E-007
                   191  1.030699635939681E-005
                   192 -4.999522250804488E-009
                   193 -3.574683328852993E-008
                   194 -3.632373745815630E-005
                   195  2.127805028785642E-005
                   196  8.136458369420324E-009
                   197  6.059683007997801E-009
                   198  7.674718195264244E-006
                   199  2.236089839137770E-006
                   200  3.123667132252083E-005
                   201 -7.275013133295857E-009
                   202  2.044142674068788E-007
                   203  2.357830940895800E-005
                   204 -5.556110874807180E-007
                   205 -1.097611707316943E-005
                   206  9.691249532364236E-009
                   207 -2.237080713346157E-008
                   208  2.528454615709782E-006
                   209  1.750405022974257E-006
                   210  4.862204401903161E-009
                   211  2.920319235448081E-008
                   212  5.746358158988295E-003
                   213 -3.178856689216509E-003
                   214  5.334335249310526E-004
                   215  3.095188879482207E-004
                   216  4.209382504228282E-004
                   217  5.746326614170342E-003
                   218 -3.178844377692341E-003
                   219 -5.331508173954499E-004
                   220 -3.098991283556453E-004
                   221  4.210113898909828E-004
                   222 -6.801169558814713E-004
                   223 -1.852865139908485E-004
                   224  4.470357351387022E-006
                   225 -3.754455197936768E-005
                   226 -4.486035275967765E-005
                   227 -6.801849266458859E-004
                   228 -1.848977449945184E-004
                   229 -4.499766319599488E-006
                   230  3.756572780796729E-005
                   231 -4.485104421760809E-005
                   232 -2.690494818229013E-004
                   233 -2.460517866141391E-004
                   234 -2.815521572454814E-006
                   235 -1.356629138349395E-005
                   236 -8.992582636057664E-007
                   237 -2.690944672268318E-004
                   238 -2.462103785513148E-004
                   239  2.809761591865267E-006
                   240  1.361518301234208E-005
                   241 -8.370049162485604E-007
                   242  1.063302005587340E-004
                   243 -3.467742914870200E-005
                   244  5.555461327909685E-009
                   245 -3.039253898607862E-008
                   246  1.393337082627613E-005
 Sym= __2_A__
 Ene=  0.000000000000000E+000
 Spin= Alpha
 Occup=    2.00000000000000     
                     1 -1.596744852434965E-005
                     2 -8.088218267640283E-005
                     3  1.937881740160398E-003
                     4  3.817563863126378E-005
                     5  1.140039742284773E-003
                     6  6.942474897712278E-007
                     7 -9.509340294140580E-007
                     8  2.117620961276869E-003
                     9 -3.162689810849526E-008
                    10  4.520257575981151E-008
                    11 -1.053286635047126E-004
                    12 -1.464248175142551E-008
                    13  2.892060251926328E-008
                    14 -5.469083523100007E-005
                    15  5.624012024655504E-005
                    16  1.664025942174891E-008
                    17 -4.286558128364116E-008
                    18  1.539173377571507E-005
                    19 -2.251617891545780E-005
                    20 -1.040277711301233E-004
                    21  6.218477555892627E-009
                    22  7.550343249585992E-008
                    23 -5.765012493011266E-005
                    24  9.891827096864302E-005
                    25  1.940810612075421E-004
                    26 -1.490885001562719E-007
                    27  2.605071044690148E-007
                    28 -4.856036179871272E-005
                    29 -2.530142302566382E-005
                    30  3.370526679220591E-008
                    31  1.690434948717700E-008
                    32   1.00101245291421     
                    33  8.934672579913224E-003
                    34  2.634639242204955E-003
                    35 -7.987909774309496E-003
                    36 -1.058521858977901E-006
                    37  1.430178330672540E-006
                    38 -3.190363880420105E-003
                    39  4.284685111661188E-007
                    40 -5.776608760281927E-007
                    41  1.295848164799722E-003
                    42  1.225962673806480E-006
                    43 -1.723291243174549E-006
                    44  3.675083596805456E-003
                    45  2.845821477034386E-004
                    46  2.954665752811501E-007
                    47 -4.396382131796468E-008
                    48 -4.006503850778368E-004
                    49 -1.618862799335248E-006
                    50  4.060265932423481E-004
                    51 -3.501331308085873E-008
                    52 -7.027220882402806E-007
                    53  8.653873256610968E-004
                    54  3.837518711978220E-005
                    55  2.979899119114492E-004
                    56 -1.457204970767377E-007
                    57  4.558173068943850E-007
                    58 -1.801469055657515E-004
                    59  3.496263440615973E-006
                    60  7.142909195818198E-008
                    61  1.025489644813805E-007
                    62  1.237078485697878E-002
                    63 -1.819041275574813E-003
                    64 -2.808439202109477E-004
                    65  2.962913670899482E-003
                    66 -5.482523540581518E-006
                    67  2.379904706876397E-004
                    68 -1.101049363742560E-004
                    69 -2.778708653809837E-005
                    70  4.969841293051856E-004
                    71  6.522623412230176E-005
                    72  1.105361804536692E-004
                    73 -1.867219595783401E-003
                    74  1.257224149656937E-004
                    75 -2.436035265424120E-005
                    76  1.928860284513941E-006
                    77  2.206758937058724E-005
                    78  2.458740516196360E-005
                    79  2.187080048109832E-006
                    80  8.069910089412100E-004
                    81  4.156348668985828E-005
                    82 -4.672274164201160E-004
                    83 -7.133218997297688E-006
                    84 -1.535106841512753E-005
                    85  5.041416818668854E-005
                    86  5.178441651149433E-007
                    87  3.194668360451486E-005
                    88 -1.070988270397404E-004
                    89 -3.708514326379828E-006
                    90  6.654211184708831E-006
                    91  5.338686146491991E-005
                    92  1.237075595612756E-002
                    93 -1.819121015627631E-003
                    94 -2.808915607356098E-004
                    95  2.963115416127022E-003
                    96  5.410022883956175E-006
                    97 -2.378931586922795E-004
                    98 -1.103503942110086E-004
                    99  2.782529269420114E-005
                   100 -4.970332111495899E-004
                   101  6.491034279200098E-005
                   102 -1.104636772358428E-004
                   103  1.867253692015459E-003
                   104  1.273222741892505E-004
                   105 -2.437842458154961E-005
                   106 -1.971651153320319E-006
                   107 -2.205948267980974E-005
                   108  2.456486171325794E-005
                   109  2.174490608902722E-006
                   110  8.078488270972353E-004
                   111 -4.065063009637130E-005
                   112  4.660333374404134E-004
                   113 -6.717579753405994E-006
                   114 -1.500337506252538E-005
                   115  5.046709602627781E-005
                   116 -4.937607293612867E-007
                   117 -3.167771248612264E-005
                   118 -1.072065752250380E-004
                   119 -3.704766311775059E-006
                   120 -6.562727470812186E-006
                   121 -5.327095605749603E-005
                   122 -1.402672512530532E-004
                   123 -7.523634975504368E-004
                   124  2.305074723133464E-004
                   125 -2.044413072279934E-004
                   126 -1.094043345343355E-005
                   127 -4.458546968738573E-005
                   128 -1.935770736427057E-004
                   129  2.565204054781065E-005
                   130  4.940612366651733E-005
                   131  5.657344660854277E-004
                   132 -1.493506884950366E-005
                   133  3.220631590192545E-004
                   134  6.325671383448419E-004
                   135 -2.345353125716869E-005
                   136 -4.459170400906337E-006
                   137  4.872586235983583E-005
                   138  1.594458652786197E-005
                   139  5.366241411910604E-006
                   140 -3.091902083526117E-004
                   141 -6.993572397808100E-006
                   142 -2.708664154846105E-004
                   143 -3.136243386371534E-005
                   144 -2.892792468526244E-005
                   145 -7.299742839189118E-006
                   146  6.325621270182731E-006
                   147 -2.407842235024102E-005
                   148 -2.698144805816432E-005
                   149 -5.171873730843307E-006
                   150  1.438942325105408E-007
                   151 -7.772569260060005E-006
                   152 -1.399769126481643E-004
                   153 -7.514021409662068E-004
                   154  2.305982126101963E-004
                   155 -2.055500749709333E-004
                   156  1.081417097752233E-005
                   157  4.474603115178075E-005
                   158 -1.935482862698601E-004
                   159 -2.528843790932589E-005
                   160 -4.984094217775474E-005