[Molden Format]
[Atoms] AU
  N     1    7    -4.4930274900    0.0759733000   -0.3208092800        
  C     2    6    -1.7533775500   -0.0125600200   -0.1439899100        
  C     3    6    -0.3611424900    0.2156017500   -2.3612178400        
  C     4    6    -0.4713953000   -0.2057457300    2.1474535900        
  C     5    6     2.2531493900    0.2070061500   -2.2878514000        
  C     6    6     2.1438976300   -0.1742521200    2.2106174200        
  C     7    6     3.5128033300    0.0230800400   -0.0053067300        
  H     8    1    -5.1332152800   -1.7799926600   -0.2986151000        
  H     9    1    -5.1097393700    0.7419431700    1.3957613600        
  H    10    1    -1.3419286300    0.4149967500   -4.1218879400        
  H    11    1    -1.5205389900   -0.3972328500    3.8730424400        
  H    12    1     3.3071129900    0.3758094100   -4.0130403500        
  H    13    1     3.1076154800   -0.3200876900    3.9905012500        
  H    14    1     5.5409580300    0.0368728400    0.0456986300        
[5D]
[7F]
[GTO]
  1  0
   s    12 1.00
  0.114200D+05  0.172695D-04
  0.171200D+04  0.134411D-03
  0.389300D+03  0.694561D-03
  0.110000D+03  0.278531D-02
  0.355700D+02  0.863457D-02
  0.125400D+02  0.199805D-01
  0.464400D+01  0.262908D-01
  0.129300D+01 -0.243845D-01
  0.511800D+00 -0.924934D-01
  0.178700D+00 -0.339683D+00
  0.246240D-01  0.345111D+00
  0.112530D-01  0.752750D+00
   s    10 1.00
  0.114200D+05  0.523000D-03
  0.171200D+04  0.404500D-02
  0.389300D+03  0.207750D-01
  0.110000D+03  0.807269D-01
  0.355700D+02  0.233074D+00
  0.125400D+02  0.433501D+00
  0.464400D+01  0.347472D+00
  0.129300D+01  0.412620D-01
  0.511800D+00 -0.850799D-02
  0.178700D+00  0.238400D-02
   s    10 1.00
  0.114200D+05 -0.115000D-03
  0.171200D+04 -0.895000D-03
  0.389300D+03 -0.462400D-02
  0.110000D+03 -0.185280D-01
  0.355700D+02 -0.573390D-01
  0.125400D+02 -0.132076D+00
  0.464400D+01 -0.172510D+00
  0.129300D+01  0.151814D+00
  0.511800D+00  0.599944D+00
  0.178700D+00  0.387462D+00
   s     1 1.00
  0.129300D+01  0.100000D+01
   s     1 1.00
  0.178700D+00  0.100000D+01
   p     5 1.00
  0.266300D+02  0.146700D-01
  0.594800D+01  0.917640D-01
  0.174200D+01  0.298683D+00
  0.555000D+00  0.498487D+00
  0.172500D+00  0.337023D+00
   p     1 1.00
  0.174200D+01  0.100000D+01
   p     1 1.00
  0.555000D+00  0.100000D+01
   d     1 1.00
  0.165400D+01  0.100000D+01
   d     1 1.00
  0.469000D+00  0.100000D+01
   f     1 1.00
  0.109300D+01  0.100000D+01
  
  2  0
   s    10 1.00
  0.823600D+04  0.531000D-03
  0.123500D+04  0.410800D-02
  0.280800D+03  0.210870D-01
  0.792700D+02  0.818530D-01
  0.255900D+02  0.234817D+00
  0.899700D+01  0.434401D+00
  0.331900D+01  0.346129D+00
  0.905900D+00  0.393780D-01
  0.364300D+00 -0.898300D-02
  0.128500D+00  0.238500D-02
   s    10 1.00
  0.823600D+04 -0.113000D-03
  0.123500D+04 -0.878000D-03
  0.280800D+03 -0.454000D-02
  0.792700D+02 -0.181330D-01
  0.255900D+02 -0.557600D-01
  0.899700D+01 -0.126895D+00
  0.331900D+01 -0.170352D+00
  0.905900D+00  0.140382D+00
  0.364300D+00  0.598684D+00
  0.128500D+00  0.395389D+00
   s     1 1.00
  0.905900D+00  0.100000D+01
   s     1 1.00
  0.364300D+00  0.100000D+01
   p     5 1.00
  0.187100D+02  0.140310D-01
  0.413300D+01  0.868660D-01
  0.120000D+01  0.290216D+00
  0.382700D+00  0.501008D+00
  0.120900D+00  0.343406D+00
   p     1 1.00
  0.382700D+00  0.100000D+01
   p     1 1.00
  0.120900D+00  0.100000D+01
   d     1 1.00
  0.109700D+01  0.100000D+01
   d     1 1.00
  0.318000D+00  0.100000D+01
   f     1 1.00
  0.761000D+00  0.100000D+01
  
  3  0
   s    10 1.00
  0.823600D+04  0.531000D-03
  0.123500D+04  0.410800D-02
  0.280800D+03  0.210870D-01
  0.792700D+02  0.818530D-01
  0.255900D+02  0.234817D+00
  0.899700D+01  0.434401D+00
  0.331900D+01  0.346129D+00
  0.905900D+00  0.393780D-01
  0.364300D+00 -0.898300D-02
  0.128500D+00  0.238500D-02
   s    10 1.00
  0.823600D+04 -0.113000D-03
  0.123500D+04 -0.878000D-03
  0.280800D+03 -0.454000D-02
  0.792700D+02 -0.181330D-01
  0.255900D+02 -0.557600D-01
  0.899700D+01 -0.126895D+00
  0.331900D+01 -0.170352D+00
  0.905900D+00  0.140382D+00
  0.364300D+00  0.598684D+00
  0.128500D+00  0.395389D+00
   s     1 1.00
  0.905900D+00  0.100000D+01
   s     1 1.00
  0.364300D+00  0.100000D+01
   p     5 1.00
  0.187100D+02  0.140310D-01
  0.413300D+01  0.868660D-01
  0.120000D+01  0.290216D+00
  0.382700D+00  0.501008D+00
  0.120900D+00  0.343406D+00
   p     1 1.00
  0.382700D+00  0.100000D+01
   p     1 1.00
  0.120900D+00  0.100000D+01
   d     1 1.00
  0.109700D+01  0.100000D+01
   d     1 1.00
  0.318000D+00  0.100000D+01
   f     1 1.00
  0.761000D+00  0.100000D+01
  
  4  0
   s    10 1.00
  0.823600D+04  0.531000D-03
  0.123500D+04  0.410800D-02
  0.280800D+03  0.210870D-01
  0.792700D+02  0.818530D-01
  0.255900D+02  0.234817D+00
  0.899700D+01  0.434401D+00
  0.331900D+01  0.346129D+00
  0.905900D+00  0.393780D-01
  0.364300D+00 -0.898300D-02
  0.128500D+00  0.238500D-02
   s    10 1.00
  0.823600D+04 -0.113000D-03
  0.123500D+04 -0.878000D-03
  0.280800D+03 -0.454000D-02
  0.792700D+02 -0.181330D-01
  0.255900D+02 -0.557600D-01
  0.899700D+01 -0.126895D+00
  0.331900D+01 -0.170352D+00
  0.905900D+00  0.140382D+00
  0.364300D+00  0.598684D+00
  0.128500D+00  0.395389D+00
   s     1 1.00
  0.905900D+00  0.100000D+01
   s     1 1.00
  0.364300D+00  0.100000D+01
   p     5 1.00
  0.187100D+02  0.140310D-01
  0.413300D+01  0.868660D-01
  0.120000D+01  0.290216D+00
  0.382700D+00  0.501008D+00
  0.120900D+00  0.343406D+00
   p     1 1.00
  0.382700D+00  0.100000D+01
   p     1 1.00
  0.120900D+00  0.100000D+01
   d     1 1.00
  0.109700D+01  0.100000D+01
   d     1 1.00
  0.318000D+00  0.100000D+01
   f     1 1.00
  0.761000D+00  0.100000D+01
  
  5  0
   s    10 1.00
  0.823600D+04  0.531000D-03
  0.123500D+04  0.410800D-02
  0.280800D+03  0.210870D-01
  0.792700D+02  0.818530D-01
  0.255900D+02  0.234817D+00
  0.899700D+01  0.434401D+00
  0.331900D+01  0.346129D+00
  0.905900D+00  0.393780D-01
  0.364300D+00 -0.898300D-02
  0.128500D+00  0.238500D-02
   s    10 1.00
  0.823600D+04 -0.113000D-03
  0.123500D+04 -0.878000D-03
  0.280800D+03 -0.454000D-02
  0.792700D+02 -0.181330D-01
  0.255900D+02 -0.557600D-01
  0.899700D+01 -0.126895D+00
  0.331900D+01 -0.170352D+00
  0.905900D+00  0.140382D+00
  0.364300D+00  0.598684D+00
  0.128500D+00  0.395389D+00
   s     1 1.00
  0.905900D+00  0.100000D+01
   s     1 1.00
  0.364300D+00  0.100000D+01
   p     5 1.00
  0.187100D+02  0.140310D-01
  0.413300D+01  0.868660D-01
  0.120000D+01  0.290216D+00
  0.382700D+00  0.501008D+00
  0.120900D+00  0.343406D+00
   p     1 1.00
  0.382700D+00  0.100000D+01
   p     1 1.00
  0.120900D+00  0.100000D+01
   d     1 1.00
  0.109700D+01  0.100000D+01
   d     1 1.00
  0.318000D+00  0.100000D+01
   f     1 1.00
  0.761000D+00  0.100000D+01
  
  6  0
   s    10 1.00
  0.823600D+04  0.531000D-03
  0.123500D+04  0.410800D-02
  0.280800D+03  0.210870D-01
  0.792700D+02  0.818530D-01
  0.255900D+02  0.234817D+00
  0.899700D+01  0.434401D+00
  0.331900D+01  0.346129D+00
  0.905900D+00  0.393780D-01
  0.364300D+00 -0.898300D-02
  0.128500D+00  0.238500D-02
   s    10 1.00
  0.823600D+04 -0.113000D-03
  0.123500D+04 -0.878000D-03
  0.280800D+03 -0.454000D-02
  0.792700D+02 -0.181330D-01
  0.255900D+02 -0.557600D-01
  0.899700D+01 -0.126895D+00
  0.331900D+01 -0.170352D+00
  0.905900D+00  0.140382D+00
  0.364300D+00  0.598684D+00
  0.128500D+00  0.395389D+00
   s     1 1.00
  0.905900D+00  0.100000D+01
   s     1 1.00
  0.364300D+00  0.100000D+01
   p     5 1.00
  0.187100D+02  0.140310D-01
  0.413300D+01  0.868660D-01
  0.120000D+01  0.290216D+00
  0.382700D+00  0.501008D+00
  0.120900D+00  0.343406D+00
   p     1 1.00
  0.382700D+00  0.100000D+01
   p     1 1.00
  0.120900D+00  0.100000D+01
   d     1 1.00
  0.109700D+01  0.100000D+01
   d     1 1.00
  0.318000D+00  0.100000D+01
   f     1 1.00
  0.761000D+00  0.100000D+01
  
  7  0
   s    10 1.00
  0.823600D+04  0.531000D-03
  0.123500D+04  0.410800D-02
  0.280800D+03  0.210870D-01
  0.792700D+02  0.818530D-01
  0.255900D+02  0.234817D+00
  0.899700D+01  0.434401D+00
  0.331900D+01  0.346129D+00
  0.905900D+00  0.393780D-01
  0.364300D+00 -0.898300D-02
  0.128500D+00  0.238500D-02
   s    10 1.00
  0.823600D+04 -0.113000D-03
  0.123500D+04 -0.878000D-03
  0.280800D+03 -0.454000D-02
  0.792700D+02 -0.181330D-01
  0.255900D+02 -0.557600D-01
  0.899700D+01 -0.126895D+00
  0.331900D+01 -0.170352D+00
  0.905900D+00  0.140382D+00
  0.364300D+00  0.598684D+00
  0.128500D+00  0.395389D+00
   s     1 1.00
  0.905900D+00  0.100000D+01
   s     1 1.00
  0.364300D+00  0.100000D+01
   p     5 1.00
  0.187100D+02  0.140310D-01
  0.413300D+01  0.868660D-01
  0.120000D+01  0.290216D+00
  0.382700D+00  0.501008D+00
  0.120900D+00  0.343406D+00
   p     1 1.00
  0.382700D+00  0.100000D+01
   p     1 1.00
  0.120900D+00  0.100000D+01
   d     1 1.00
  0.109700D+01  0.100000D+01
   d     1 1.00
  0.318000D+00  0.100000D+01
   f     1 1.00
  0.761000D+00  0.100000D+01
  
  8  0
   s     4 1.00
  0.130100D+02  0.196850D-01
  0.196200D+01  0.137977D+00
  0.444600D+00  0.478148D+00
  0.122000D+00  0.501240D+00
   s     1 1.00
  0.122000D+00  0.100000D+01
   p     1 1.00
  0.727000D+00  0.100000D+01
  
  9  0
   s     4 1.00
  0.130100D+02  0.196850D-01
  0.196200D+01  0.137977D+00
  0.444600D+00  0.478148D+00
  0.122000D+00  0.501240D+00
   s     1 1.00
  0.122000D+00  0.100000D+01
   p     1 1.00
  0.727000D+00  0.100000D+01
  
 10  0
   s     4 1.00
  0.130100D+02  0.196850D-01
  0.196200D+01  0.137977D+00
  0.444600D+00  0.478148D+00
  0.122000D+00  0.501240D+00
   s     1 1.00
  0.122000D+00  0.100000D+01
   p     1 1.00
  0.727000D+00  0.100000D+01
  
 11  0
   s     4 1.00
  0.130100D+02  0.196850D-01
  0.196200D+01  0.137977D+00
  0.444600D+00  0.478148D+00
  0.122000D+00  0.501240D+00
   s     1 1.00
  0.122000D+00  0.100000D+01
   p     1 1.00
  0.727000D+00  0.100000D+01
  
 12  0
   s     4 1.00
  0.130100D+02  0.196850D-01
  0.196200D+01  0.137977D+00
  0.444600D+00  0.478148D+00
  0.122000D+00  0.501240D+00
   s     1 1.00
  0.122000D+00  0.100000D+01
   p     1 1.00
  0.727000D+00  0.100000D+01
  
 13  0
   s     4 1.00
  0.130100D+02  0.196850D-01
  0.196200D+01  0.137977D+00
  0.444600D+00  0.478148D+00
  0.122000D+00  0.501240D+00
   s     1 1.00
  0.122000D+00  0.100000D+01
   p     1 1.00
  0.727000D+00  0.100000D+01
  
 14  0
   s     4 1.00
  0.130100D+02  0.196850D-01
  0.196200D+01  0.137977D+00
  0.444600D+00  0.478148D+00
  0.122000D+00  0.501240D+00
   s     1 1.00
  0.122000D+00  0.100000D+01
   p     1 1.00
  0.727000D+00  0.100000D+01
  
[MO]
 Sym= __1_a__
 Ene=  0.000000000000000E+000
 Spin= Alpha
 Occup=    2.00000000000000     
                     1  1.804639636683250E-004
                     2  0.998129690678651     
                     3 -4.524075639813610E-003
                     4  1.967988513866090E-003
                     5  7.135847371418680E-003
                     6  6.955289496467970E-003
                     7 -3.680207372243470E-003
                     8  7.618169172348110E-003
                     9 -1.080356375621750E-003
                    10  3.358367976923240E-004
                    11 -8.807574353858780E-004
                    12 -2.289225596643780E-003
                    13  2.162680698715270E-003
                    14 -3.817179864771370E-003
                    15  4.143761493924472E-005
                    16 -6.856426553464670E-005
                    17 -3.652540941161860E-005
                    18  3.353733864666220E-005
                    19  1.146427611962430E-005
                    20 -4.622894743764395E-005
                    21  6.092703997392070E-004
                    22 -2.368901810920280E-004
                    23  2.338613111589760E-004
                    24 -2.988299568029050E-004
                    25  9.335655794855314E-006
                    26 -9.189847808006087E-005
                    27  5.891281004011491E-005
                    28  2.761668497672100E-005
                    29  6.539919709971141E-007
                    30 -8.261012842160447E-005
                    31 -7.876581892912876E-006
                    32 -3.153391316158240E-004
                    33  2.972507700872680E-004
                    34  2.727795193231380E-004
                    35 -2.467130644992750E-005
                    36 -2.317334283948540E-003
                    37 -6.157852003195290E-004
                    38 -3.923585373219530E-004
                    39  1.668084426480590E-004
                    40 -1.190656364147270E-004
                    41  1.041563166544040E-003
                    42  4.641807166211000E-003
                    43  6.301364497949440E-004
                    44 -3.546272260250130E-003
                    45 -1.381143405079583E-004
                    46  2.692208856583090E-006
                    47  1.486041092176320E-005
                    48  1.424569076732114E-004
                    49  3.206646306901540E-005
                    50  5.598260291658521E-004
                    51  8.093547907626130E-004
                    52 -9.777035600910830E-005
                    53 -1.978846102167248E-004
                    54 -2.649255769222320E-004
                    55  5.119599122403278E-005
                    56 -3.325225066907142E-005
                    57 -6.510464181160856E-006
                    58  5.792770356335320E-005
                    59 -1.941336947026330E-006
                    60 -3.792126933440756E-005
                    61  1.374230258311273E-006
                    62 -7.965440385116560E-004
                    63 -2.654734814154140E-003
                    64 -8.808928715123450E-005
                    65  2.892048412342560E-003
                    66 -1.915072730515620E-004
                    67 -2.931503460529650E-004
                    68 -3.253782787564800E-004
                    69  8.647187250605350E-004
                    70 -3.534243566184630E-005
                    71  7.265403532671450E-004
                    72  1.744071923361150E-003
                    73  9.507224109902140E-005
                    74 -1.546640921906930E-003
                    75 -4.324252316547046E-005
                    76 -4.777639121251870E-005
                    77 -2.579069868091790E-006
                    78  7.740928462025161E-005
                    79  8.179661115151080E-006
                    80  4.984917175550204E-004
                    81  1.479183407174340E-004
                    82 -9.601396368140630E-005
                    83 -6.952683766774800E-005
                    84  3.267465683172120E-006
                    85 -2.567948061562432E-005
                    86 -1.530107661415994E-004
                    87  1.484374682030332E-006
                    88  1.166106058800152E-005
                    89  2.157081840721600E-005
                    90 -7.438722606522039E-005
                    91 -7.841232644177645E-006
                    92  4.000500977959690E-005
                    93 -1.833226317174370E-004
                    94  3.269714899149410E-004
                    95 -1.332726999379580E-003
                    96  3.140557114509950E-004
                    97 -2.959622147346330E-004
                    98  2.219506610344510E-004
                    99  2.030856352452690E-004
                   100  2.982564964686080E-006
                   101  5.394159520559610E-004
                   102 -2.440253660638950E-003
                   103 -9.557224895234840E-005
                   104  1.963133358749610E-004
                   105 -4.984379697827096E-005
                   106 -9.061049540665349E-006
                   107  6.795087769958870E-006
                   108  2.956197757992000E-005
                   109  1.725359157004960E-006
                   110 -1.373013522514713E-004
                   111 -1.986760307393060E-004
                   112  3.552147260405180E-005
                   113 -2.423122781579360E-004
                   114  3.101130556045570E-005
                   115 -2.928819742365609E-005
                   116  5.538042220271203E-005
                   117  5.311227084456543E-006
                   118  1.507864654038776E-005
                   119 -1.221128897458780E-005
                   120 -3.770384452408259E-006
                   121 -6.803573055026963E-006
                   122 -3.278009036150680E-004
                   123 -9.973804667174489E-004
                   124  1.196738645659970E-004
                   125  9.546996874957510E-004
                   126 -1.997375539337560E-004
                   127 -4.787073698968560E-005
                   128 -5.443595039335980E-005
                   129  5.692355436750480E-004
                   130 -2.595511205888310E-005
                   131  3.040276470389380E-004
                   132  2.863053896725770E-003
                   133  2.496295993210680E-005
                   134  4.834364571259920E-004
                   135  3.846391522403716E-005
                   136 -3.753463532838450E-006
                   137 -4.413564368902870E-006
                   138 -2.221252421610100E-005
                   139  8.675498688132590E-006
                   140  2.599763651316441E-004
                   141  3.778167626489880E-004
                   142  2.915929956421140E-006
                   143 -4.048932502798580E-004
                   144 -2.934469143037920E-005
                   145 -3.779388252251676E-005
                   146 -2.773158120276383E-005
                   147 -5.112859180076761E-006
                   148 -1.368544011091748E-005
                   149 -4.957739549537150E-006
                   150 -9.024955843368711E-005
                   151  2.592255549751237E-007
                   152 -1.444357299403520E-004
                   153 -3.179724600526270E-004
                   154 -5.813747566065420E-005
                   155  5.792545165161420E-004
                   156 -2.103588027359890E-004
                   157 -2.187383872380450E-005
                   158 -5.418102811232600E-005
                   159 -2.667623256247180E-004
                   160 -3.133693835061520E-005
                   161  2.545892104997360E-004
                   162 -1.203756710055120E-003
                   163 -5.217367648896580E-005
                   164  9.172113165476510E-004
                   165 -2.359042828993005E-005
                   166  9.492546926669799E-006
                   167  1.298806198541950E-006
                   168  2.280202697282640E-005
                   169  6.269548266962780E-006
                   170 -8.796104590436331E-005
                   171  1.131462839256180E-005
                   172  1.379068828817230E-005
                   173  6.249012624249081E-005
                   174  7.595261278642050E-006
                   175 -1.394278325519224E-005
                   176 -1.619222435895669E-006
                   177 -1.169712518390913E-006
                   178 -9.345447535125499E-006
                   179 -3.381407292960590E-007
                   180  7.314855496414521E-006
                   181 -1.469307887281469E-006
                   182 -1.613279427799260E-004
                   183 -4.983074193889979E-004
                   184  4.021149305587300E-005
                   185  2.134717718202280E-004
                   186 -2.561265236127480E-005
                   187  6.388047681815370E-005
                   188 -8.848589515123290E-005
                   189  9.534151520111911E-005
                   190 -2.657033969973660E-005
                   191  4.311541876978970E-004
                   192 -4.676745540042560E-004
                   193 -1.917060898639590E-004
                   194  2.234387940913410E-003
                   195 -3.124824938653510E-006
                   196  5.544934308497350E-006
                   197  6.412480527221700E-007
                   198 -2.932708905506000E-007
                   199  1.586673976627290E-007
                   200 -1.323988565507258E-004
                   201 -3.467602807700550E-004
                   202  1.635621875225680E-005
                   203  6.356430467940020E-005
                   204  3.114411595563680E-005
                   205  3.076091795694457E-006
                   206  4.790310340748943E-006
                   207 -1.543079947052789E-006
                   208  2.522033691152520E-005
                   209 -2.101432600644990E-006
                   210 -4.257107891092547E-006
                   211 -2.904496343599027E-006
                   212  2.276286825475960E-005
                   213 -8.214659611756530E-004
                   214  1.066533606615980E-004
                   215  2.532325436572270E-004
                   216 -4.463972320974910E-005
                   217  1.144435106526470E-003
                   218 -1.263606365787340E-003
                   219  1.420630053639530E-004
                   220 -4.943812900207160E-005
                   221 -3.349193298413370E-004
                   222 -3.445454408153750E-004
                   223 -2.675483714468340E-004
                   224 -1.043258656314700E-004
                   225 -4.488502719747260E-006
                   226  5.233665423638860E-005
                   227 -1.689749341956800E-004
                   228 -5.972872405944730E-004
                   229 -2.336657832782040E-005
                   230  9.657706391314380E-006
                   231 -5.685421795663480E-005
                   232  1.208611542019740E-004
                   233 -7.284053720148470E-004
                   234 -2.322222507211030E-006
                   235 -1.483013371810100E-006
                   236  1.023233045492290E-005
                   237 -1.164376577961180E-004
                   238 -2.243836706873210E-004
                   239  1.923813073224410E-005
                   240 -2.851569913960450E-006
                   241  2.435199202529130E-005
                   242 -4.382056352938860E-005
                   243  1.325295466297820E-004
                   244  3.137354216880240E-005
                   245  2.917636334395610E-006
                   246  1.826398768559320E-006
 Sym= __2_a__
 Ene=  0.000000000000000E+000
 Spin= Alpha
 Occup=    2.00000000000000     
                     1  1.814722996894190E-006
                     2 -9.562909916469440E-005
                     3  1.008558257435620E-003
                     4 -2.046598029453150E-005
                     5  1.189706686711180E-003
                     6  1.358112985737610E-003
                     7 -1.780646869601770E-004
                     8 -1.797548533042150E-005
                     9 -1.559702129983720E-004
                    10  1.020156232509630E-004
                    11 -5.936838905500250E-005
                    12  1.973204011374240E-004
                    13  1.472618626684240E-004
                    14 -3.262221632739320E-005
                    15 -5.451279223430164E-005
                    16  2.010343285192160E-005
                    17 -3.989130765402440E-006
                    18  4.748689887098000E-005
                    19 -4.186093489325320E-007
                    20  6.806057850735314E-005
                    21 -6.428096549934520E-005
                    22  1.758420813259360E-005
                    23  1.189403779648710E-004
                    24 -5.224409340997520E-005
                    25 -4.882643404841473E-005
                    26  1.251720768869713E-004
                    27  1.942429317366526E-005
                    28 -3.747274988319140E-005
                    29 -1.103978314712430E-005
                    30  1.197556349446990E-004
                    31  2.709487509642607E-005
                    32   1.00086125809197     
                    33  8.567346908473730E-003
                    34  2.856545470796820E-003
                    35 -8.421465080059779E-003
                    36 -1.695456326572920E-003
                    37  2.184705831296730E-004
                    38  1.180728116740800E-004
                    39  9.710931311606770E-004
                    40 -9.294620935915720E-005
                    41 -2.890948451336500E-004
                    42  2.691873815076550E-003
                    43 -1.000602382742870E-004
                    44  3.511364747073420E-005
                    45  3.126735281696516E-004
                    46  9.181452543838190E-006
                    47 -6.783833241169090E-005
                    48  3.376542923154860E-004
                    49  2.100447566526890E-006
                    50 -9.736388079172383E-004
                    51 -2.687378143622140E-004
                    52  1.703751285804660E-004
                    53 -1.589805550007544E-004
                    54  1.636428570596380E-005
                    55 -1.734355281317844E-005
                    56  2.643794294686191E-004
                    57 -7.479069545674138E-006
                    58 -2.746759492070940E-005
                    59 -2.613715338165930E-005
                    60  6.719464743560778E-005
                    61  7.898400069583694E-006
                    62  1.563042977516710E-002
                    63 -1.612501756749430E-003
                    64 -2.872965784116410E-004
                    65  2.844604041566090E-003
                    66 -2.425162283767290E-004
                    67 -1.791159682773650E-005
                    68  3.783859133985520E-004
                    69  3.519972235113810E-005
                    70 -3.532770821519650E-005
                    71  3.351070463159940E-004
                    72  3.506501504429220E-004
                    73  2.018237959961240E-004
                    74 -1.741800667158530E-003
                    75  3.875466330796065E-006
                    76  2.511180514906270E-005
                    77  2.801503980853690E-006
                    78 -4.405926322638860E-005
                    79 -2.372211543040490E-006
                    80 -4.950239012731986E-004
                    81 -3.806241910734240E-004
                    82  2.249570572917270E-005
                    83  7.992684388399840E-004
                    84  3.429422737886750E-005
                    85  3.726549505298351E-005
                    86  1.050409357361217E-004
                    87  1.728557238945933E-005
                    88 -2.481992712874180E-005
                    89 -2.226229747130450E-005
                    90 -2.537108966830151E-005
                    91  3.216306483854637E-006
                    92  1.786054244815740E-002
                    93 -1.652285196550060E-003
                    94 -3.363967407787410E-004
                    95  3.303968355783800E-003
                    96 -2.633025288622960E-004
                    97  4.533481163726230E-005
                    98 -3.604977191712170E-004
                    99 -8.596202634709450E-005
                   100  7.152119344346261E-005
                   101 -7.180711320204890E-004
                   102  2.259891201946560E-004
                   103 -1.191308921022980E-004
                   104  1.587600518709230E-003
                   105  8.553742653738486E-006
                   106 -6.937958723784090E-006
                   107  1.711568537238860E-006
                   108 -2.790653868552880E-005
                   109 -6.936264149371470E-007
                   110 -2.355921121258465E-004
                   111  4.890678593746970E-004
                   112 -3.680757867019760E-005
                   113  6.417827396142560E-004
                   114 -4.122339416444310E-005
                   115 -4.827368037471215E-005
                   116  8.977899105794936E-005
                   117 -9.186454808126933E-006
                   118  2.004988997130040E-005
                   119 -1.079600891926360E-005
                   120 -3.079859605550748E-005
                   121 -4.879395980554218E-007
                   122 -8.287252539253700E-005
                   123 -7.573802593107100E-004
                   124  2.424327977781420E-004
                   125 -3.368994416631240E-004
                   126 -1.214168188124930E-004
                   127  6.687997053174360E-006
                   128 -5.422337918094560E-005
                   129  6.177038651194900E-004
                   130 -7.167210607385100E-006
                   131  6.773748500158310E-005
                   132  5.116519243171620E-004
                   133 -4.603570052622510E-005
                   134  4.059526739574760E-004
                   135  1.234476010932617E-006
                   136  3.748518271154460E-005
                   137  3.105160277090740E-006
                   138 -3.729294264459240E-005
                   139 -4.451876331355950E-006
                   140  1.924597622732408E-004
                   141 -2.753104570547480E-004
                   142 -1.017748982790110E-005
                   143 -2.343047137299020E-004
                   144  2.572834916212740E-005
                   145 -1.203127382805173E-005
                   146  1.267826064418285E-005
                   147 -2.310277073513632E-006
                   148 -5.148953989890400E-006
                   149 -3.719234206646410E-006
                   150 -2.055120547169989E-005
                   151  1.347675774233673E-006
                   152 -2.369545036054650E-005
                   153 -7.794936247025060E-004
                   154  2.371937349754520E-004
                   155 -2.046480303069660E-004
                   156 -1.008497851060070E-004
                   157 -1.053253633251680E-005
                   158  3.628376313921100E-005
                   159  5.049782987828780E-004
                   160  1.009355326818680E-005