===========================================================
===                   runc                              ===
===           version 7.0.2 , April 2021              ===
===          requires COLUMBUS version Col_7.0.2        ===
===                                                     ===
===   written by: Thomas Mueller                        ===
===   gradient ext. by: Michal Dallos                   ===
===               University of Vienna                  ===
===   maintained by: Felix Plasser                      ===
===               Loughborough University               ===
===========================================================


coremem. (seq.): 200000 MB,  coremem. (par.): 19000 MB
Vdisk size: 0 DP
Reading job control file control.run ... 
 ****** This is an 2c-QDPT MRCISD calculation ****** 
 model space size=4:0:4
SMOLCAS=/home-4/yshen57@jhu.edu/Software/Chemistry/Columbus-7.0.2_OpenMolcas-18.09-col/OpenMolcas/build
Found serial Molcas Installation at /home-4/yshen57@jhu.edu/Software/Chemistry/Columbus-7.0.2_OpenMolcas-18.09-col/OpenMolcas/build
  done 
INFO: keywords nadcoupl and seward are supported for DCI mode only!
seward specified, using also alaska
Creating various directories ... 
 done 
SMOLCAS=/home-4/yshen57@jhu.edu/Software/Chemistry/Columbus-7.0.2_OpenMolcas-18.09-col/OpenMolcas/build
PMOLCAS=
Checking for illegal keywords and keyword combinations ... done 

 Nonadiabatic coupling term calculation type: DCI+DCSF
  States involved in calcualtion:
   DRT1,state1;  DRT1,state2
   DRT1,state1;  DRT1,state3
   DRT1,state1;  DRT1,state4
   DRT1,state2;  DRT1,state3
   DRT1,state2;  DRT1,state4
   DRT1,state3;  DRT1,state4
   DRT2,state1;  DRT2,state2
   DRT2,state1;  DRT2,state3
   DRT2,state1;  DRT2,state4
   DRT2,state2;  DRT2,state3
   DRT2,state2;  DRT2,state4
   DRT2,state3;  DRT2,state4

Additional gradients computed:
   DRT1,state1
   DRT1,state2
   DRT1,state3
   DRT1,state4
   DRT2,state1
   DRT2,state2
   DRT2,state3
   DRT2,state4

Checking for complete set of input files ... 
mcscf calculation without preceeding scf calculation 
will use 
 /scratch/users/yshen57@jhu.edu/Molcas/linear-path/min-B1_min-B2/1/mrci/mocoef as starting MOs 
Performing coupled non-rel. SO-CI calculation, nrroots: 4 0 4
starting cidrt.x   -m 200000 < cidrtin > temp at Fri May 27 09:42:05 EDT 2022

 -------------------- cidrt.x ------------------------
 spatial symmetry:  
 total number of configurations          0
 number of reference configurations     0
 --------------------------------------------------- 
 Preparing SO cidrtin files for 1 symmetries
cat ../cidrtin | sed -e 's/^.*input the molecular spatial symmetry/1 \/ molsym/' > cidrtin.so_A 
calling cidrt.x -m 200000 < cidrtin.so_A > cidrtls.soci_A ...
Checking the DRTs for consistency ...
calling reindex.x -i 1 -m 200000  ...
done

 ++++++++++++++++++ input file generation +++++++++++++ 
 runc start: Fri May 27 09:42:25 EDT 2022
 
  runc start: Fri May 27 09:42:25 EDT 2022
 
 starting unik.gets.x > unikls at Fri May 27 09:42:25 EDT 2022

 -------------------- unik.gets.x ------------------------
 --------------------------------------------------- 
 ++++++++++++++++++++ ao integral calculation ++++++++++++++++
starting pymolcas molcas.input.seward > molcas.output.seward  at Fri May 27 09:42:25 EDT 2022

Generating link ln -s ./molcas.OrdInt ORDINT 
 -------------------- seward ------------------------
      Basis set label: N.ANILINE.........
      Basis set label: C.ANILINE.........
      Basis set label: H.ANILINE.........
  Nuclear Coordinates in                   atomic units                                   Angstrom 
     Center  Label                x              y              z                     x              y              z
        1      N1              -4.324100       0.093907       0.000565             -2.288215       0.049693       0.000299
        2      C2              -1.776519       0.023867       0.000558             -0.940093       0.012630       0.000295
        3      C3              -0.429055       0.018676      -2.343320             -0.227046       0.009883      -1.240032
        4      C4              -0.429122       0.015742       2.344466             -0.227082       0.008330       1.240638
        5      C5               2.182038      -0.006458      -2.309011              1.154685      -0.003418      -1.221876
        6      C6               2.181971      -0.009349       2.310200              1.154650      -0.004948       1.222505
        7      C7               3.487763      -0.022026       0.000604              1.845645      -0.011656       0.000320
        8      H8              -5.335419      -0.110309      -1.636303             -2.823382      -0.058373      -0.865894
        9      H9              -5.335466      -0.112358       1.637147             -2.823407      -0.059457       0.866341
       10      H10             -1.463527       0.037909      -4.079476             -0.774465       0.020060      -2.158766
       11      H11             -1.463644       0.032802       4.080614             -0.774527       0.017358       2.159368
       12      H12              3.216773      -0.014169      -4.049320              1.702243      -0.007498      -2.142808
       13      H13              3.216657      -0.019239       4.050528              1.702181      -0.010181       2.143447
       14      H14              5.515094      -0.040413       0.000622              2.918462      -0.021386       0.000329
 
            Nuclear Potential Energy            271.45264921 au
 --------------------------------------------------- 
  >>>>>>>>>>>>> info: preparing drt no 1 out of 1 <<<<<<
starting mcdrt.x -m 200000 < mcdrtin > mcdrtls at Fri May 27 09:48:25 EDT 2022

 -------------------- mcdrt.x ------------------------
  Spin multiplicity: singlet 
  Spatial symmetry (#): 1
  Number of Configurations:       1275 
  --------------------------------------------------- 
 starting mcuft.x at Fri May 27 09:48:26 EDT 2022

 -------------------- mcuft.x ------------------------
 --------------------------------------------------- 
 ++++++++++++++++++++ MCSCF calculation +++++++++++++++
info: taking mocoef file from /scratch/users/yshen57@jhu.edu/Molcas/linear-path/min-B1_min-B2/1/mrci/mocoef
adding flag 30 to mcscfin
Writing mcdenin files for mcscf.x for 1 DRTs
adding flag 26 to mcscfin
starting mcscf.x -m 200000 at Fri May 27 09:48:26 EDT 2022

 -------------------- mcscf.x ------------------------
 Individual total energies for all states: 
    DRT #1 state # 1 wt 0.250 total energy=     -285.900676442, rel. (eV)=   0.000000
    DRT #1 state # 2 wt 0.250 total energy=     -285.711680750, rel. (eV)=   5.142837
    DRT #1 state # 3 wt 0.250 total energy=     -285.677956099, rel. (eV)=   6.060531
    DRT #1 state # 4 wt 0.250 total energy=     -285.635529470, rel. (eV)=   7.215019
  --------------------------------------------------- 
 starting mcpc.x -m 200000 < mcpcin > mcpcls at Fri May 27 09:51:26 EDT 2022

 -------------------- mcpc.x ------------------------
 --------------------------------------------------- 
 starting mcpc.x -m 200000 < mcpcin > mcpcls at Fri May 27 09:51:26 EDT 2022

 -------------------- mcpc.x ------------------------
 --------------------------------------------------- 
 starting mcpc.x -m 200000 < mcpcin > mcpcls at Fri May 27 09:51:26 EDT 2022

 -------------------- mcpc.x ------------------------
 --------------------------------------------------- 
 starting mcpc.x -m 200000 < mcpcin > mcpcls at Fri May 27 09:51:27 EDT 2022

 -------------------- mcpc.x ------------------------
 --------------------------------------------------- 
 
========= state properties for state-averaged MCSCF =========
mcscf.drt1.st01.sp
starting exptvl.x -m 200000   at Fri May 27 09:51:27 EDT 2022

 -------------------- exptvl.x ------------------------
  === dipole moment === 
                     X               Y               Z   
   orign x       0.00000000      0.00000000      0.00000000
   orign y       0.00000000      0.00000000      0.00000000
   orign z       0.00000000      0.00000000      0.00000000
   nuclear      -0.61578502      0.55426649      0.02874224
   electronic   -0.38549168     -0.68308637     -0.02883721
   total        -1.00127670     -0.12881988     -0.00009497
   total Dipole moment =   2.56597033    Debye
 --------------------------------------------------- 
 mcscf.drt1.st02.sp
starting exptvl.x -m 200000   at Fri May 27 09:51:27 EDT 2022

 -------------------- exptvl.x ------------------------
  === dipole moment === 
                     X               Y               Z   
   orign x       0.00000000      0.00000000      0.00000000
   orign y       0.00000000      0.00000000      0.00000000
   orign z       0.00000000      0.00000000      0.00000000
   nuclear      -0.61578502      0.55426649      0.02874224
   electronic    4.07510309     -0.71445339     -0.02879295
   total         3.45931807     -0.16018690     -0.00005071
   total Dipole moment =   8.80214003    Debye
 --------------------------------------------------- 
 mcscf.drt1.st03.sp
starting exptvl.x -m 200000   at Fri May 27 09:51:27 EDT 2022

 -------------------- exptvl.x ------------------------
  === dipole moment === 
                     X               Y               Z   
   orign x       0.00000000      0.00000000      0.00000000
   orign y       0.00000000      0.00000000      0.00000000
   orign z       0.00000000      0.00000000      0.00000000
   nuclear      -0.61578502      0.55426649      0.02874224
   electronic   -0.82577395     -0.66014465     -0.02882913
   total        -1.44155897     -0.10587816     -0.00008689
   total Dipole moment =   3.67395066    Debye
 --------------------------------------------------- 
 mcscf.drt1.st04.sp
starting exptvl.x -m 200000   at Fri May 27 09:51:28 EDT 2022

 -------------------- exptvl.x ------------------------
  === dipole moment === 
                     X               Y               Z   
   orign x       0.00000000      0.00000000      0.00000000
   orign y       0.00000000      0.00000000      0.00000000
   orign z       0.00000000      0.00000000      0.00000000
   nuclear      -0.61578502      0.55426649      0.02874224
   electronic    4.91065732     -0.73892190     -0.02879631
   total         4.29487230     -0.18465541     -0.00005407
   total Dipole moment =  10.92657237    Debye
 --------------------------------------------------- 
  using the MCSCF MOs ... 
starting cidrt.x  -m 200000 < cidrtin.1 > cidrtls at Fri May 27 09:51:28 EDT 2022

 -------------------- cidrt.x ------------------------
 total number of orbitals            :   246
 number of frozen core orbitals      :    18
 number of frozen virtual orbitals   :     0
 number of internal orbitals         :    14
 number of external orbitals         :   214
 spatial symmetry:   a  
 
 total number of configurations  158587185
 number of reference configurations  1275
 --------------------------------------------------- 
 starting cidrt.x  -m 200000 < cidrtin.2 > cidrtls at Fri May 27 09:51:30 EDT 2022

 -------------------- cidrt.x ------------------------
 total number of orbitals            :   246
 number of frozen core orbitals      :    18
 number of frozen virtual orbitals   :     0
 number of internal orbitals         :    14
 number of external orbitals         :   214
 spatial symmetry:   a  
 
 total number of configurations  282461366
 number of reference configurations  1666
 --------------------------------------------------- 
 starting tran.x -m 200000  at Fri May 27 09:51:34 EDT 2022

 -------------------- tran.x ------------------------
 --------------------------------------------------- 
  Starting ciudgav with DRT # 1 out of 2 

 *** starting pciudg section *** 
nproc: 48 machinefile:  
assuming machinefile syntax: one host name per line optionally repeated
 section2, MPI_STARTUP:
 /software/apps/mpi/openmpi/3.1/intel/18.0/bin/mpirun -np 48  /home-4/yshen57@jhu.edu/Software/Chemistry/Columbus-7.0.2_OpenMolcas-18.09-col/Columbus/pciudg.x -m 19000 
 -------------------- pciudg.x ------------------------
 type of calculation:          mr-sdci
 number of configurations:     158587185
 total mr-sdci energy             -286.0974115547 
 last mr-sdci energy change           0.0000000000 
 residual                             0.0000085219 
  type of calculation:          mr-sdci
 number of configurations:     158587185
 total mr-sdci energy             -285.9434628301 
 last mr-sdci energy change          -0.0000000000 
 residual                             0.0000078516 
  type of calculation:          mr-sdci
 number of configurations:     158587185
 total mr-sdci energy             -285.9211266432 
 last mr-sdci energy change           0.0000000000 
 residual                             0.0000058230 
  type of calculation:          mr-sdci
 number of configurations:     158587185
 total mr-sdci energy             -285.8695730923 
 last mr-sdci energy change           0.0000000003 
 residual                             0.0000086153 
  --------------------------------------------------- 
 keyinfile returned docipci=0:
starting cipc.x -m 200000 < cipcin > cipcls at Sat May 28 03:21:31 EDT 2022

 -------------------- cipc.x ------------------------
 --------------------------------------------------- 
  Starting ciudgav with DRT # 2 out of 2 

 *** starting pciudg section *** 
nproc: 48 machinefile:  
assuming machinefile syntax: one host name per line optionally repeated
 section2, MPI_STARTUP:
 /software/apps/mpi/openmpi/3.1/intel/18.0/bin/mpirun -np 48  /home-4/yshen57@jhu.edu/Software/Chemistry/Columbus-7.0.2_OpenMolcas-18.09-col/Columbus/pciudg.x -m 19000 
 -------------------- pciudg.x ------------------------
 type of calculation:          mr-sdci
 number of configurations:     282461366
 total mr-sdci energy             -285.9496594703 
 last mr-sdci energy change           0.0000000000 
 residual                             0.0000056393 
  type of calculation:          mr-sdci
 number of configurations:     282461366
 total mr-sdci energy             -285.9458015936 
 last mr-sdci energy change          -0.0000000000 
 residual                             0.0000092664 
  type of calculation:          mr-sdci
 number of configurations:     282461366
 total mr-sdci energy             -285.9392431934 
 last mr-sdci energy change           0.0000000000 
 residual                             0.0000077486 
  type of calculation:          mr-sdci
 number of configurations:     282461366
 total mr-sdci energy             -285.9150011332 
 last mr-sdci energy change           0.0000000000 
 residual                             0.0000066805 
  --------------------------------------------------- 
 keyinfile returned docipci=0:
starting cipc.x -m 200000 < cipcin > cipcls at Sun May 29 17:12:59 EDT 2022

 -------------------- cipc.x ------------------------
 --------------------------------------------------- 
 Reindex call
run_socinr: imult=1 irrep=1 
opening file =ciudgls.drt1.sp
opening file =ciudgls.drt1.sp
opening file =ciudgls.drt1.sp
opening file =ciudgls.drt1.sp
run_socinr: imult=3 irrep=1 
opening file =ciudgls.drt2.sp
opening file =ciudgls.drt2.sp
opening file =ciudgls.drt2.sp
opening file =ciudgls.drt2.sp
 copying /scratch/users/yshen57@jhu.edu/Molcas/linear-path/min-B1_min-B2/1/mrci/cidrtfl.so__A --> cidrtfl.so__A 
 copying /scratch/users/yshen57@jhu.edu/Molcas/linear-path/min-B1_min-B2/1/mrci/cidrtfl.so__A --> cidrtfl.so__A 
starting reindex.x -m 200000 > reindexls at Sun May 29 17:13:20 EDT 2022

 -------------------- reindex.x ------------------------
 --------------------------------------------------- 
 1      1        1           civfl_1_A             1      1    0+       1             1         civfl.so__A
1      1        2           civfl_1_A             1      1    0+       2    1005971284         civfl.so__A
1      1        3           civfl_1_A             1      1    0+       3    2011942567         civfl.so__A
1      1        4           civfl_1_A             1      1    0+       4    3017913850         civfl.so__A
3      1        1           civfl_3_A             1      3    0+       5    4023885133         civfl.so__A
3      1        1           civfl_3_A             1      3    1+       6    5029856416         civfl.so__A
3      1        1           civfl_3_A             1      3    1-       7    6035827699         civfl.so__A
3      1        2           civfl_3_A             1      3    0+       8    7041798982         civfl.so__A
3      1        2           civfl_3_A             1      3    1+       9    8047770265         civfl.so__A
3      1        2           civfl_3_A             1      3    1-      10    9053741548         civfl.so__A
3      1        3           civfl_3_A             1      3    0+      11   10059712831         civfl.so__A
3      1        3           civfl_3_A             1      3    1+      12   11065684114         civfl.so__A
3      1        3           civfl_3_A             1      3    1-      13   12071655397         civfl.so__A
3      1        4           civfl_3_A             1      3    0+      14   13077626680         civfl.so__A
3      1        4           civfl_3_A             1      3    1+      15   14083597963         civfl.so__A
3      1        4           civfl_3_A             1      3    1-      16   15089569246         civfl.so__A
 Executing ciudg.x  for gamma =A ...

 *** starting pciudg section *** 
nproc: 48 machinefile:  
assuming machinefile syntax: one host name per line optionally repeated
 section2, MPI_STARTUP:
 /software/apps/mpi/openmpi/3.1/intel/18.0/bin/mpirun -np 48  /home-4/yshen57@jhu.edu/Software/Chemistry/Columbus-7.0.2_OpenMolcas-18.09-col/Columbus/pciudg.x -m 19000 
 -------------------- pciudg.x ------------------------
 type of calculation:          mr-sdci
 number of configurations:     1005971283
 total mr-sdci energy             -286.0974115579 
 last mr-sdci energy change           0.0000000032 
 residual                            36.2680000000 
  type of calculation:          mr-sdci
 number of configurations:     1005971283
 total mr-sdci energy             -285.9496595266 
 last mr-sdci energy change           0.0061967000 
 residual                            36.1200000000 
  type of calculation:          mr-sdci
 number of configurations:     1005971283
 total mr-sdci energy             -285.9496595266 
 last mr-sdci energy change           0.0285330000 
 residual                            36.1200000000 
  type of calculation:          mr-sdci
 number of configurations:     1005971283
 total mr-sdci energy             -285.9496594992 
 last mr-sdci energy change           0.0800860000 
 residual                            36.1200000000 
  type of calculation:          mr-sdci
 number of configurations:     1005971283
 total mr-sdci energy             -285.9458015949 
 last mr-sdci energy change          -0.0038579000 
 residual                            36.1160000000 
  type of calculation:          mr-sdci
 number of configurations:     1005971283
 total mr-sdci energy             -285.9458015383 
 last mr-sdci energy change          -0.0038579000 
 residual                            36.1160000000 
  type of calculation:          mr-sdci
 number of configurations:     1005971283
 total mr-sdci energy             -285.9458015381 
 last mr-sdci energy change          -0.0038579000 
 residual                            36.1160000000 
  type of calculation:          mr-sdci
 number of configurations:     1005971283
 total mr-sdci energy             -285.9434627982 
 last mr-sdci energy change          -0.0023388000 
 residual                            36.1140000000 
  type of calculation:          mr-sdci
 number of configurations:     1005971283
 total mr-sdci energy             -285.9392431935 
 last mr-sdci energy change          -0.0065584000 
 residual                            36.1100000000 
  type of calculation:          mr-sdci
 number of configurations:     1005971283
 total mr-sdci energy             -285.9392431929 
 last mr-sdci energy change          -0.0065584000 
 residual                            36.1100000000 
  type of calculation:          mr-sdci
 number of configurations:     1005971283
 total mr-sdci energy             -285.9392431928 
 last mr-sdci energy change          -0.0000000006 
 residual                            36.1100000000 
  type of calculation:          mr-sdci
 number of configurations:     1005971283
 total mr-sdci energy             -285.9211266429 
 last mr-sdci energy change          -0.0181170000 
 residual                            36.0910000000 
  type of calculation:          mr-sdci
 number of configurations:     1005971283
 total mr-sdci energy             -285.9150011327 
 last mr-sdci energy change          -0.0242420000 
 residual                            36.0850000000 
  type of calculation:          mr-sdci
 number of configurations:     1005971283
 total mr-sdci energy             -285.9150011327 
 last mr-sdci energy change          -0.0000000005 
 residual                            36.0850000000 
  type of calculation:          mr-sdci
 number of configurations:     1005971283
 total mr-sdci energy             -285.9150011327 
 last mr-sdci energy change          -0.0000000005 
 residual                            36.0850000000 
  type of calculation:          mr-sdci
 number of configurations:     1005971283
 total mr-sdci energy             -285.8695730916 
 last mr-sdci energy change          -0.0454280000 
 residual                            36.0400000000 
  --------------------------------------------------- 
 ************* Results for Spin-Orbit CI gamma=A **************** 
Final spin-orbit CI state energies: 


-------------- HT matrix in AU ----------------  
-36.267715    
 0.000000    -36.113766    
 0.000000     0.000000    -36.091430    
 0.000000     0.000000     0.000000    -36.039877    
-0.000006    -0.000013     0.000000    -0.000000    -36.119963    
 0.000000     0.000000     0.000000    -0.000000    -0.000000    -36.119963    
 0.000000     0.000000     0.000001    -0.000002     0.000000    -0.000000    -36.119963    
 0.000021    -0.000003    -0.000000     0.000000     0.000000     0.000000    -0.000000    -36.116105    
-0.000000     0.000000    -0.000000     0.000000    -0.000000     0.000000    -0.000015     0.000000    -36.116105    
-0.000000     0.000000     0.000003    -0.000001     0.000000     0.000015     0.000000     0.000000    -0.000000    -36.116105    
-0.000000     0.000000    -0.000000    -0.000007     0.000000     0.000000    -0.000000     0.000000     0.000002     0.000000    -36.109547    
-0.000000     0.000000     0.000000     0.000000    -0.000000     0.000000     0.000000    -0.000002     0.000000    -0.000000     0.000000    -36.109547    
-0.000002    -0.000002     0.000000     0.000000     0.000000    -0.000000     0.000000    -0.000000     0.000000     0.000000     0.000000     0.000000    -36.109547    
-0.000000    -0.000004    -0.000000    -0.000000     0.000000     0.000000    -0.000000     0.000000    -0.000000     0.000000     0.000000    -0.000001     0.000000    -36.085305    
 0.000000     0.000000    -0.000000    -0.000000    -0.000000     0.000000    -0.000001     0.000000     0.000000     0.000004     0.000001     0.000000    -0.000000     0.000000    -36.085305    
 0.000000     0.000000    -0.000000     0.000001     0.000000     0.000001     0.000000    -0.000000    -0.000004     0.000000    -0.000000     0.000000     0.000000     0.000000    -0.000000    -36.085305    
-------------- HT matrix in eV ---------------- 
 -986.895   
    0.000    -982.706   
    0.000       0.000    -982.098   
    0.000       0.000       0.000    -980.695   
   -0.000      -0.000       0.000      -0.000    -982.874   
    0.000       0.000       0.000      -0.000      -0.000    -982.874   
    0.000       0.000       0.000      -0.000       0.000      -0.000    -982.874   
    0.001      -0.000      -0.000       0.000       0.000       0.000      -0.000    -982.769   
   -0.000       0.000      -0.000       0.000      -0.000       0.000      -0.000       0.000    -982.769   
   -0.000       0.000       0.000      -0.000       0.000       0.000       0.000       0.000      -0.000    -982.769   
   -0.000       0.000      -0.000      -0.000       0.000       0.000      -0.000       0.000       0.000       0.000    -982.591   
   -0.000       0.000       0.000       0.000      -0.000       0.000       0.000      -0.000       0.000      -0.000       0.000    -982.591   
   -0.000      -0.000       0.000       0.000       0.000      -0.000       0.000      -0.000       0.000       0.000       0.000       0.000    -982.591   
   -0.000      -0.000      -0.000      -0.000       0.000       0.000      -0.000       0.000      -0.000       0.000       0.000      -0.000       0.000    -981.931   
    0.000       0.000      -0.000      -0.000      -0.000       0.000      -0.000       0.000       0.000       0.000       0.000       0.000      -0.000       0.000    -981.931   
    0.000       0.000      -0.000       0.000       0.000       0.000       0.000      -0.000      -0.000       0.000      -0.000       0.000       0.000       0.000      -0.000    -981.931   
-------------- HT matrix in cm-1 ------------------- 
Eref = -36.26771508
     0.00   
     0.00    33787.90   
     0.00        0.00    38690.13   
     0.00        0.00        0.00    50004.85   
    -1.35       -2.95        0.00        0.00    32427.89   
     0.00        0.00        0.03       -0.01        0.00    32427.89   
     0.00        0.00        0.19       -0.34        0.00        0.00    32427.89   
     4.64       -0.65        0.00        0.00        0.00        0.00       -0.00    33274.60   
    -0.00        0.00       -0.08        0.04        0.00        0.00       -3.23        0.00    33274.60   
     0.00        0.00        0.56       -0.14        0.00        3.23        0.00        0.00        0.00    33274.60   
     0.00        0.00       -0.01       -1.43        0.00        0.09       -0.02        0.00        0.38        0.08    34714.00   
    -0.02        0.07        0.00        0.00       -0.09        0.00        0.00       -0.38        0.00        0.00        0.00    34714.00   
    -0.44       -0.34        0.00        0.00        0.02        0.00        0.00       -0.08        0.00        0.00        0.00        0.00    34714.00   
    -0.07       -0.78        0.00        0.00        0.00        0.00        0.00        0.00        0.00        0.00        0.00       -0.18        0.00    40034.53   
     0.00        0.00       -0.00       -0.04        0.00        0.00       -0.18        0.00        0.00        0.83        0.18        0.00        0.00        0.00    40034.53   
     0.00        0.00       -0.05        0.29        0.00        0.18        0.00        0.00       -0.83        0.00       -0.00        0.00        0.00        0.00        0.00    40034.53   


Spin-Orbit CI: perturbational estimate of Spin-Orbit CI energies and wavefunctions 
                SO   1         SO   2         SO   3         SO   4         SO   5         SO   6         SO   7         SO   8

   energy  -286.09741156  -285.94965953  -285.94965953  -285.94965950  -285.94580159  -285.94580154  -285.94580154  -285.94346280
 
   NR   1    -0.99999999    -0.00000000    -0.00000000    -0.00004155     0.00013943    -0.00000000     0.00000000     0.00000009
   NR   2    -0.00000000    -0.00000000     0.00000000     0.00216911     0.00127570     0.00000000    -0.00000000    -0.99999676
   NR   3    -0.00000000    -0.00003102     0.00000287    -0.00000000     0.00000000    -0.00001208     0.00010450    -0.00000000
   NR   4     0.00000000     0.00001964     0.00000044    -0.00000000    -0.00000000     0.00000003    -0.00000878     0.00000000
   NR   5    -0.00004155     0.00003780    -0.00062487     0.99999745    -0.00000469     0.00000057    -0.00000232     0.00216910
   NR   6     0.00000003     0.03752671    -0.99928813    -0.00062586     0.00000000     0.00099507    -0.00368719    -0.00000136
   NR   7     0.00000000     0.99928833     0.03752673    -0.00001432     0.00000000    -0.00368719    -0.00099507    -0.00000003
   NR   8     0.00013943     0.00000239     0.00000014     0.00000192     0.99999894     0.00060797     0.00014924     0.00127571
   NR   9    -0.00000009     0.00381641     0.00014332    -0.00000000    -0.00062586     0.96545267     0.26054956    -0.00000080
   NR  10    -0.00000000    -0.00014332     0.00381641    -0.00000000    -0.00001432     0.26054960    -0.96545289    -0.00000002
   NR  11    -0.00000000     0.00000445     0.00003988     0.00000002     0.00000017    -0.00027207    -0.00001747     0.00000005
   NR  12    -0.00000053    -0.00000000    -0.00000002     0.00003974     0.00026712     0.00000017     0.00000001     0.00008228
   NR  13    -0.00001257    -0.00000000    -0.00000000    -0.00000627     0.00005414     0.00000000     0.00000000    -0.00036545
   NR  14    -0.00000176     0.00000001     0.00000000     0.00000022     0.00000016    -0.00000002     0.00000007    -0.00012461
   NR  15     0.00000000     0.00002371     0.00000047    -0.00000000    -0.00000000    -0.00003204     0.00011836     0.00000008
   NR  16     0.00000000    -0.00000047     0.00002371    -0.00000000    -0.00000000     0.00011836     0.00003205     0.00000000

                SO   9         SO  10         SO  11         SO  12         SO  13         SO  14         SO  15         SO  16

   energy  -285.93924319  -285.93924319  -285.93924319  -285.92112664  -285.91500113  -285.91500113  -285.91500113  -285.86957309
 
   NR   1     0.00000000     0.00000359     0.00001207    -0.00000000     0.00000000     0.00000176    -0.00000000    -0.00000000
   NR   2     0.00000000     0.00000904     0.00037445    -0.00000000     0.00000000     0.00012461    -0.00000001    -0.00000000
   NR   3     0.00000151     0.00000000     0.00000000     0.99999999    -0.00004023     0.00000000     0.00000627     0.00000000
   NR   4     0.00009357     0.00000000    -0.00000000     0.00000000    -0.00002968     0.00000000    -0.00000139    -0.99999999
   NR   5     0.00000002     0.00003702    -0.00001651     0.00000000     0.00000001    -0.00000005    -0.00000000     0.00000000
   NR   6     0.00003989    -0.00000002     0.00000001     0.00000443     0.00002360    -0.00000000    -0.00000234     0.00000033
   NR   7    -0.00000697    -0.00000000     0.00000000     0.00003095     0.00000234     0.00000000     0.00002360     0.00001965
   NR   8     0.00000017     0.00027227    -0.00001259    -0.00000001    -0.00000008    -0.00000001     0.00000001    -0.00000000
   NR   9     0.00026720    -0.00000017     0.00000001    -0.00001545    -0.00012205     0.00000000     0.00001181    -0.00000216
   NR  10     0.00005386    -0.00000000     0.00000000     0.00010402    -0.00001182    -0.00000001    -0.00012205     0.00000849
   NR  11     0.99999976    -0.00061024     0.00013707    -0.00000151    -0.00000415     0.00000002    -0.00003395     0.00009357
   NR  12    -0.00062527    -0.97027425     0.24200705     0.00000000     0.00000000     0.00003419     0.00000002    -0.00000006
   NR  13    -0.00001469    -0.24200709    -0.97027441     0.00000000     0.00000000    -0.00000086     0.00000000    -0.00000000
   NR  14    -0.00000002    -0.00003297     0.00000916     0.00000000    -0.00005546    -0.99999984    -0.00055697     0.00000000
   NR  15    -0.00003420     0.00000002    -0.00000001     0.00000235    -0.09644257     0.00055972    -0.99533839     0.00000425
   NR  16     0.00000089     0.00000000    -0.00000000     0.00004064     0.99533854    -0.00000149    -0.09644258    -0.00002940
rescaling new expansion vector ... old norm=   4233.2819260013

 model space basis from reindexls .. 
 --SO-CI-------         -----NR-CI-------             ---model space---- 
 Gamma  root             S   irrep   root                S   ms* 
A          1             1   A         1                 1   0+
A          2             1   A         2                 1   0+
A          3             1   A         3                 1   0+
A          4             1   A         4                 1   0+
A          5             3   A         1                 3   0+
A          6             3   A         1                 3   1+
A          7             3   A         1                 3   1-
A          8             3   A         2                 3   0+
A          9             3   A         2                 3   1+
A         10             3   A         2                 3   1-
A         11             3   A         3                 3   0+
A         12             3   A         3                 3   1+
A         13             3   A         3                 3   1-
A         14             3   A         4                 3   0+
A         15             3   A         4                 3   1+
A         16             3   A         4                 3   1-

************************** SUMMARY *********************************

--------------  SO matrix for irrep A in eV ---------------- 
|1,0+;1,A,1>  -986.895   
|1,0+;1,A,2>     0.000    -982.706   
|1,0+;1,A,3>     0.000       0.000    -982.098   
|1,0+;1,A,4>     0.000       0.000       0.000    -980.695   
|3,0+;3,A,1>    -0.000      -0.000       0.000      -0.000    -982.874   
|3,1+;3,A,1>     0.000       0.000       0.000      -0.000      -0.000    -982.874   
|3,1-;3,A,1>     0.000       0.000       0.000      -0.000       0.000      -0.000    -982.874   
|3,0+;3,A,2>     0.001      -0.000      -0.000       0.000       0.000       0.000      -0.000    -982.769   
|3,1+;3,A,2>    -0.000       0.000      -0.000       0.000      -0.000       0.000      -0.000       0.000    -982.769   
|3,1-;3,A,2>    -0.000       0.000       0.000      -0.000       0.000       0.000       0.000       0.000      -0.000    -982.769   
|3,0+;3,A,3>    -0.000       0.000      -0.000      -0.000       0.000       0.000      -0.000       0.000       0.000       0.000    -982.591   
|3,1+;3,A,3>    -0.000       0.000       0.000       0.000      -0.000       0.000       0.000      -0.000       0.000      -0.000       0.000    -982.591   
|3,1-;3,A,3>    -0.000      -0.000       0.000       0.000       0.000      -0.000       0.000      -0.000       0.000       0.000       0.000       0.000    -982.591   
|3,0+;3,A,4>    -0.000      -0.000      -0.000      -0.000       0.000       0.000      -0.000       0.000      -0.000       0.000       0.000      -0.000       0.000    -981.931   
|3,1+;3,A,4>     0.000       0.000      -0.000      -0.000      -0.000       0.000      -0.000       0.000       0.000       0.000       0.000       0.000      -0.000       0.000    -981.931   
|3,1-;3,A,4>     0.000       0.000      -0.000       0.000       0.000       0.000       0.000      -0.000      -0.000       0.000      -0.000       0.000       0.000       0.000      -0.000    -981.931   

--------------  SO matrix for irrep A in cm-1 ------------------- 
Eref = -36.26771508
|1,0+;1,A,1>      0.00   
|1,0+;1,A,2>      0.00    33787.90   
|1,0+;1,A,3>      0.00        0.00    38690.13   
|1,0+;1,A,4>      0.00        0.00        0.00    50004.85   
|3,0+;3,A,1>     -1.35       -2.95        0.00        0.00    32427.89   
|3,1+;3,A,1>      0.00        0.00        0.03       -0.01        0.00    32427.89   
|3,1-;3,A,1>      0.00        0.00        0.19       -0.34        0.00        0.00    32427.89   
|3,0+;3,A,2>      4.64       -0.65        0.00        0.00        0.00        0.00       -0.00    33274.60   
|3,1+;3,A,2>     -0.00        0.00       -0.08        0.04        0.00        0.00       -3.23        0.00    33274.60   
|3,1-;3,A,2>      0.00        0.00        0.56       -0.14        0.00        3.23        0.00        0.00        0.00    33274.60   
|3,0+;3,A,3>      0.00        0.00       -0.01       -1.43        0.00        0.09       -0.02        0.00        0.38        0.08    34714.00   
|3,1+;3,A,3>     -0.02        0.07        0.00        0.00       -0.09        0.00        0.00       -0.38        0.00        0.00        0.00    34714.00   
|3,1-;3,A,3>     -0.44       -0.34        0.00        0.00        0.02        0.00        0.00       -0.08        0.00        0.00        0.00        0.00    34714.00   
|3,0+;3,A,4>     -0.07       -0.78        0.00        0.00        0.00        0.00        0.00        0.00        0.00        0.00        0.00       -0.18        0.00    40034.53   
|3,1+;3,A,4>      0.00        0.00       -0.00       -0.04        0.00        0.00       -0.18        0.00        0.00        0.83        0.18        0.00        0.00        0.00    40034.53   
|3,1-;3,A,4>      0.00        0.00       -0.05        0.29        0.00        0.18        0.00        0.00       -0.83        0.00       -0.00        0.00        0.00        0.00        0.00    40034.53   


 ** perturbational estimate of Spin-Orbit CI energies and wavefunctions in model space basis** 

                      A  1         A  2         A  3         A  4         A  5         A  6         A  7         A  8

            energy  -286.09741156  -285.94965953  -285.94965953  -285.94965950  -285.94580159  -285.94580154  -285.94580154  -285.94346280
          
   |1,0+;1,A,1>    -0.99999999    -0.00000000    -0.00000000    -0.00004155     0.00013943    -0.00000000     0.00000000     0.00000009
   |1,0+;1,A,2>    -0.00000000    -0.00000000     0.00000000     0.00216911     0.00127570     0.00000000    -0.00000000    -0.99999676
   |1,0+;1,A,3>    -0.00000000    -0.00003102     0.00000287    -0.00000000     0.00000000    -0.00001208     0.00010450    -0.00000000
   |1,0+;1,A,4>     0.00000000     0.00001964     0.00000044    -0.00000000    -0.00000000     0.00000003    -0.00000878     0.00000000
   |3,0+;3,A,1>    -0.00004155     0.00003780    -0.00062487     0.99999745    -0.00000469     0.00000057    -0.00000232     0.00216910
   |3,1+;3,A,1>     0.00000003     0.03752671    -0.99928813    -0.00062586     0.00000000     0.00099507    -0.00368719    -0.00000136
   |3,1-;3,A,1>     0.00000000     0.99928833     0.03752673    -0.00001432     0.00000000    -0.00368719    -0.00099507    -0.00000003
   |3,0+;3,A,2>     0.00013943     0.00000239     0.00000014     0.00000192     0.99999894     0.00060797     0.00014924     0.00127571
   |3,1+;3,A,2>    -0.00000009     0.00381641     0.00014332    -0.00000000    -0.00062586     0.96545267     0.26054956    -0.00000080
   |3,1-;3,A,2>    -0.00000000    -0.00014332     0.00381641    -0.00000000    -0.00001432     0.26054960    -0.96545289    -0.00000002
   |3,0+;3,A,3>    -0.00000000     0.00000445     0.00003988     0.00000002     0.00000017    -0.00027207    -0.00001747     0.00000005
   |3,1+;3,A,3>    -0.00000053    -0.00000000    -0.00000002     0.00003974     0.00026712     0.00000017     0.00000001     0.00008228
   |3,1-;3,A,3>    -0.00001257    -0.00000000    -0.00000000    -0.00000627     0.00005414     0.00000000     0.00000000    -0.00036545
   |3,0+;3,A,4>    -0.00000176     0.00000001     0.00000000     0.00000022     0.00000016    -0.00000002     0.00000007    -0.00012461
   |3,1+;3,A,4>     0.00000000     0.00002371     0.00000047    -0.00000000    -0.00000000    -0.00003204     0.00011836     0.00000008
   |3,1-;3,A,4>     0.00000000    -0.00000047     0.00002371    -0.00000000    -0.00000000     0.00011836     0.00003205     0.00000000

                      A  9         A 10         A 11         A 12         A 13         A 14         A 15         A 16

            energy  -285.93924319  -285.93924319  -285.93924319  -285.92112664  -285.91500113  -285.91500113  -285.91500113  -285.86957309
          
   |1,0+;1,A,1>     0.00000000     0.00000359     0.00001207    -0.00000000     0.00000000     0.00000176    -0.00000000    -0.00000000
   |1,0+;1,A,2>     0.00000000     0.00000904     0.00037445    -0.00000000     0.00000000     0.00012461    -0.00000001    -0.00000000
   |1,0+;1,A,3>     0.00000151     0.00000000     0.00000000     0.99999999    -0.00004023     0.00000000     0.00000627     0.00000000
   |1,0+;1,A,4>     0.00009357     0.00000000    -0.00000000     0.00000000    -0.00002968     0.00000000    -0.00000139    -0.99999999
   |3,0+;3,A,1>     0.00000002     0.00003702    -0.00001651     0.00000000     0.00000001    -0.00000005    -0.00000000     0.00000000
   |3,1+;3,A,1>     0.00003989    -0.00000002     0.00000001     0.00000443     0.00002360    -0.00000000    -0.00000234     0.00000033
   |3,1-;3,A,1>    -0.00000697    -0.00000000     0.00000000     0.00003095     0.00000234     0.00000000     0.00002360     0.00001965
   |3,0+;3,A,2>     0.00000017     0.00027227    -0.00001259    -0.00000001    -0.00000008    -0.00000001     0.00000001    -0.00000000
   |3,1+;3,A,2>     0.00026720    -0.00000017     0.00000001    -0.00001545    -0.00012205     0.00000000     0.00001181    -0.00000216
   |3,1-;3,A,2>     0.00005386    -0.00000000     0.00000000     0.00010402    -0.00001182    -0.00000001    -0.00012205     0.00000849
   |3,0+;3,A,3>     0.99999976    -0.00061024     0.00013707    -0.00000151    -0.00000415     0.00000002    -0.00003395     0.00009357
   |3,1+;3,A,3>    -0.00062527    -0.97027425     0.24200705     0.00000000     0.00000000     0.00003419     0.00000002    -0.00000006
   |3,1-;3,A,3>    -0.00001469    -0.24200709    -0.97027441     0.00000000     0.00000000    -0.00000086     0.00000000    -0.00000000
   |3,0+;3,A,4>    -0.00000002    -0.00003297     0.00000916     0.00000000    -0.00005546    -0.99999984    -0.00055697     0.00000000
   |3,1+;3,A,4>    -0.00003420     0.00000002    -0.00000001     0.00000235    -0.09644257     0.00055972    -0.99533839     0.00000425
   |3,1-;3,A,4>     0.00000089     0.00000000    -0.00000000     0.00004064     0.99533854    -0.00000149    -0.09644258    -0.00002940
rescaling new expansion vector ... old norm=   4233.2819260013

Sorted Energies:
1  -286.09741156 
2  -285.94965953 
3  -285.94965953 
4  -285.94965950 
5  -285.94580159 
6  -285.94580154 
7  -285.94580154 
8  -285.94346280 
9  -285.93924319 
10  -285.93924319 
11  -285.93924319 
12  -285.92112664 
13  -285.91500113 
14  -285.91500113 
15  -285.91500113 
16  -285.86957309 
Not computing transition moment with identical bra and ket.
 Calculating transition moment for (1,1) => (1,2)
 starting transci.x -m 200000 at Sun May 29 19:10:15 EDT 2022

 -------------------- transci.x ------------------------

                          State No. 1            State No. 2

   Space symmetry:           a                      a   
   No. of CSFs:          ********               ********
   State energies:      -286.09741155          -285.94346283  a.u.

   Transition energy:     0.15394872  a.u.
   Transition energy:     4.19        eV

       Transition moment components:

                 x            y            z

electron          0.009828    -0.024450    -0.000015  e*bohr
frozen core       0.000000     0.000000     0.000000  e*bohr
total (elec)      0.009828    -0.024450    -0.000015  e*bohr


   Tr.dipole length:     0.026351    e*bohr
   Oscillator strength :  0.000071
   Einstein A coef.:     0.5426E+05  1/sec
   Einstein B coef.:     0.2818E+06  sec/g

                 x            y            z

<L> electron    -0.000013     0.000181    -0.288117  e*bohr


   <L> value length:     0.288117    e*bohr
 --------------------------------------------------- 
  Calculating transition moment for (1,1) => (1,3)
 starting transci.x -m 200000 at Sun May 29 19:12:35 EDT 2022

 -------------------- transci.x ------------------------

                          State No. 1            State No. 2

   Space symmetry:           a                      a   
   No. of CSFs:          ********               ********
   State energies:      -286.09741155          -285.92112664  a.u.

   Transition energy:     0.17628491  a.u.
   Transition energy:     4.80        eV

       Transition moment components:

                 x            y            z

electron          0.000009     0.000381    -0.608391  e*bohr
frozen core       0.000000     0.000000     0.000000  e*bohr
total (elec)      0.000009     0.000381    -0.608391  e*bohr


   Tr.dipole length:     0.608391    e*bohr
   Oscillator strength :  0.043500
   Einstein A coef.:     0.4343E+08  1/sec
   Einstein B coef.:     0.1502E+09  sec/g

                 x            y            z

<L> electron     0.011977     0.730376     0.000457  e*bohr


   <L> value length:     0.730474    e*bohr
 --------------------------------------------------- 
  Calculating transition moment for (1,1) => (1,4)
 starting transci.x -m 200000 at Sun May 29 19:14:54 EDT 2022

 -------------------- transci.x ------------------------

                          State No. 1            State No. 2

   Space symmetry:           a                      a   
   No. of CSFs:          ********               ********
   State energies:      -286.09741155          -285.86957309  a.u.

   Transition energy:     0.22783846  a.u.
   Transition energy:     6.20        eV

       Transition moment components:

                 x            y            z

electron         -0.000000    -0.000006     0.009603  e*bohr
frozen core       0.000000     0.000000     0.000000  e*bohr
total (elec)     -0.000000    -0.000006     0.009603  e*bohr


   Tr.dipole length:     0.009603    e*bohr
   Oscillator strength :  0.000014
   Einstein A coef.:     0.2336E+05  1/sec
   Einstein B coef.:     0.3742E+05  sec/g

                 x            y            z

<L> electron     0.448513    -0.013491    -0.000002  e*bohr


   <L> value length:     0.448716    e*bohr
 --------------------------------------------------- 
 Not computing transition moment with identical bra and ket.
 Calculating transition moment for (1,2) => (1,3)
 starting transci.x -m 200000 at Sun May 29 19:17:12 EDT 2022

 -------------------- transci.x ------------------------

                          State No. 1            State No. 2

   Space symmetry:           a                      a   
   No. of CSFs:          ********               ********
   State energies:      -285.94346283          -285.92112664  a.u.

   Transition energy:     0.02233619  a.u.
   Transition energy:     0.61        eV

       Transition moment components:

                 x            y            z

electron          0.000000     0.000017    -0.026574  e*bohr
frozen core       0.000000     0.000000     0.000000  e*bohr
total (elec)      0.000000     0.000017    -0.026574  e*bohr


   Tr.dipole length:     0.026574    e*bohr
   Oscillator strength :  0.000011
   Einstein A coef.:     0.1686E+03  1/sec
   Einstein B coef.:     0.2866E+06  sec/g

                 x            y            z

<L> electron     0.134503    -0.002332     0.000000  e*bohr


   <L> value length:     0.134523    e*bohr
 --------------------------------------------------- 
  Calculating transition moment for (1,2) => (1,4)
 starting transci.x -m 200000 at Sun May 29 19:19:25 EDT 2022

 -------------------- transci.x ------------------------

                          State No. 1            State No. 2

   Space symmetry:           a                      a   
   No. of CSFs:          ********               ********
   State energies:      -285.94346283          -285.86957309  a.u.

   Transition energy:     0.07388974  a.u.
   Transition energy:     2.01        eV

       Transition moment components:

                 x            y            z

electron          0.000003     0.000119    -0.190698  e*bohr
frozen core       0.000000     0.000000     0.000000  e*bohr
total (elec)      0.000003     0.000119    -0.190698  e*bohr


   Tr.dipole length:     0.190698    e*bohr
   Oscillator strength :  0.001791
   Einstein A coef.:     0.3142E+06  1/sec
   Einstein B coef.:     0.1476E+08  sec/g

                 x            y            z

<L> electron    -0.000694     0.596455     0.000373  e*bohr


   <L> value length:     0.596456    e*bohr
 --------------------------------------------------- 
 Not computing transition moment with identical bra and ket.
 Calculating transition moment for (1,3) => (1,4)
 starting transci.x -m 200000 at Sun May 29 19:21:37 EDT 2022

 -------------------- transci.x ------------------------

                          State No. 1            State No. 2

   Space symmetry:           a                      a   
   No. of CSFs:          ********               ********
   State energies:      -285.92112664          -285.86957309  a.u.

   Transition energy:     0.05155355  a.u.
   Transition energy:     1.40        eV

       Transition moment components:

                 x            y            z

electron         -0.021323     0.026393     0.000016  e*bohr
frozen core       0.000000     0.000000     0.000000  e*bohr
total (elec)     -0.021323     0.026393     0.000016  e*bohr


   Tr.dipole length:     0.033930    e*bohr
   Oscillator strength :  0.000040
   Einstein A coef.:     0.3379E+04  1/sec
   Einstein B coef.:     0.4672E+06  sec/g

                 x            y            z

<L> electron     0.000005    -0.000091     0.143352  e*bohr


   <L> value length:     0.143352    e*bohr
 --------------------------------------------------- 
 Not computing transition moment with identical bra and ket.
Not computing transition moment with identical bra and ket.
 Calculating transition moment for (2,1) => (2,2)
 starting transci.x -m 200000 at Sun May 29 19:23:49 EDT 2022

 -------------------- transci.x ------------------------

                          State No. 1            State No. 2

   Space symmetry:           a                      a   
   No. of CSFs:          ********               ********
   State energies:      -285.94965947          -285.94580159  a.u.

   Transition energy:     0.00385788  a.u.
   Transition energy:     0.10        eV

       Transition moment components:

                 x            y            z

electron          0.856702     0.013236     0.000021  e*bohr
frozen core       0.000000     0.000000     0.000000  e*bohr
total (elec)      0.856702     0.013236     0.000021  e*bohr


   Tr.dipole length:     0.856805    e*bohr
   Oscillator strength :  0.001888
   Einstein A coef.:     0.9028E+03  1/sec
   Einstein B coef.:     0.2979E+09  sec/g

                 x            y            z

<L> electron    -0.000016     0.000116    -0.179608  e*bohr


   <L> value length:     0.179608    e*bohr
 --------------------------------------------------- 
  Calculating transition moment for (2,1) => (2,3)
 starting transci.x -m 200000 at Sun May 29 19:28:05 EDT 2022

 -------------------- transci.x ------------------------

                          State No. 1            State No. 2

   Space symmetry:           a                      a   
   No. of CSFs:          ********               ********
   State energies:      -285.94965947          -285.93924319  a.u.

   Transition energy:     0.01041628  a.u.
   Transition energy:     0.28        eV

       Transition moment components:

                 x            y            z

electron          0.000004     0.000175    -0.279895  e*bohr
frozen core       0.000000     0.000000     0.000000  e*bohr
total (elec)      0.000004     0.000175    -0.279895  e*bohr


   Tr.dipole length:     0.279895    e*bohr
   Oscillator strength :  0.000544
   Einstein A coef.:     0.1896E+04  1/sec
   Einstein B coef.:     0.3179E+08  sec/g

                 x            y            z

<L> electron    -0.023421    -1.230140    -0.000770  e*bohr


   <L> value length:     1.230363    e*bohr
 --------------------------------------------------- 
  Calculating transition moment for (2,1) => (2,4)
 starting transci.x -m 200000 at Sun May 29 19:32:21 EDT 2022

 -------------------- transci.x ------------------------

                          State No. 1            State No. 2

   Space symmetry:           a                      a   
   No. of CSFs:          ********               ********
   State energies:      -285.94965947          -285.91500113  a.u.

   Transition energy:     0.03465834  a.u.
   Transition energy:     0.94        eV

       Transition moment components:

                 x            y            z

electron          0.196875    -0.008788    -0.000003  e*bohr
frozen core       0.000000     0.000000     0.000000  e*bohr
total (elec)      0.196875    -0.008788    -0.000003  e*bohr


   Tr.dipole length:     0.197071    e*bohr
   Oscillator strength :  0.000897
   Einstein A coef.:     0.3463E+05  1/sec
   Einstein B coef.:     0.1576E+08  sec/g

                 x            y            z

<L> electron    -0.000001     0.000009    -0.009695  e*bohr


   <L> value length:     0.009695    e*bohr
 --------------------------------------------------- 
 Not computing transition moment with identical bra and ket.
 Calculating transition moment for (2,2) => (2,3)
 starting transci.x -m 200000 at Sun May 29 19:36:37 EDT 2022

 -------------------- transci.x ------------------------

                          State No. 1            State No. 2

   Space symmetry:           a                      a   
   No. of CSFs:          ********               ********
   State energies:      -285.94580159          -285.93924319  a.u.

   Transition energy:     0.00655840  a.u.
   Transition energy:     0.18        eV

       Transition moment components:

                 x            y            z

electron          0.000001     0.000057    -0.091335  e*bohr
frozen core       0.000000     0.000000     0.000000  e*bohr
total (elec)      0.000001     0.000057    -0.091335  e*bohr


   Tr.dipole length:     0.091335    e*bohr
   Oscillator strength :  0.000036
   Einstein A coef.:     0.5040E+02  1/sec
   Einstein B coef.:     0.3385E+07  sec/g

                 x            y            z

<L> electron     0.097380    -0.281107    -0.000175  e*bohr


   <L> value length:     0.297497    e*bohr
 --------------------------------------------------- 
  Calculating transition moment for (2,2) => (2,4)
 starting transci.x -m 200000 at Sun May 29 19:40:48 EDT 2022

 -------------------- transci.x ------------------------

                          State No. 1            State No. 2

   Space symmetry:           a                      a   
   No. of CSFs:          ********               ********
   State energies:      -285.94580159          -285.91500113  a.u.

   Transition energy:     0.03080046  a.u.
   Transition energy:     0.84        eV

       Transition moment components:

                 x            y            z

electron          0.004478     0.027258     0.000017  e*bohr
frozen core       0.000000     0.000000     0.000000  e*bohr
total (elec)      0.004478     0.027258     0.000017  e*bohr


   Tr.dipole length:     0.027623    e*bohr
   Oscillator strength :  0.000016
   Einstein A coef.:     0.4775E+03  1/sec
   Einstein B coef.:     0.3097E+06  sec/g

                 x            y            z

<L> electron     0.000006    -0.000028     0.042997  e*bohr


   <L> value length:     0.042997    e*bohr
 --------------------------------------------------- 
 Not computing transition moment with identical bra and ket.
 Calculating transition moment for (2,3) => (2,4)
 starting transci.x -m 200000 at Sun May 29 19:44:58 EDT 2022

 -------------------- transci.x ------------------------

                          State No. 1            State No. 2

   Space symmetry:           a                      a   
   No. of CSFs:          ********               ********
   State energies:      -285.93924319          -285.91500113  a.u.

   Transition energy:     0.02424206  a.u.
   Transition energy:     0.66        eV

       Transition moment components:

                 x            y            z

electron         -0.000002    -0.000096     0.153761  e*bohr
frozen core       0.000000     0.000000     0.000000  e*bohr
total (elec)     -0.000002    -0.000096     0.153761  e*bohr


   Tr.dipole length:     0.153761    e*bohr
   Oscillator strength :  0.000382
   Einstein A coef.:     0.7214E+04  1/sec
   Einstein B coef.:     0.9595E+07  sec/g

                 x            y            z

<L> electron     0.001241     0.110868     0.000069  e*bohr


   <L> value length:     0.110875    e*bohr
 --------------------------------------------------- 
 Not computing transition moment with identical bra and ket.
 --- ci properties for state 1 of  DRT 1 ----
starting exptvl.x -m 200000  at Sun May 29 19:49:09 EDT 2022

 -------------------- exptvl.x ------------------------
  === dipole moment === 
                     X               Y               Z   
   orign x       0.00000000      0.00000000      0.00000000
   orign y       0.00000000      0.00000000      0.00000000
   orign z       0.00000000      0.00000000      0.00000000
   nuclear      -0.61578502      0.55426649      0.02874224
   electronic   -0.25997871     -0.66835071     -0.02882619
   total        -0.87576373     -0.11408422     -0.00008395
   total Dipole moment =   2.24477931    Debye
 --------------------------------------------------- 
  --- ci properties for state 2 of  DRT 1 ----
starting exptvl.x -m 200000  at Sun May 29 19:49:10 EDT 2022

 -------------------- exptvl.x ------------------------
  === dipole moment === 
                     X               Y               Z   
   orign x       0.00000000      0.00000000      0.00000000
   orign y       0.00000000      0.00000000      0.00000000
   orign z       0.00000000      0.00000000      0.00000000
   nuclear      -0.61578502      0.55426649      0.02874224
   electronic    3.74878932     -0.69065097     -0.02878273
   total         3.13300430     -0.13638448     -0.00004049
   total Dipole moment =   7.97085218    Debye
 --------------------------------------------------- 
  --- ci properties for state 3 of  DRT 1 ----
starting exptvl.x -m 200000  at Sun May 29 19:49:10 EDT 2022

 -------------------- exptvl.x ------------------------
  === dipole moment === 
                     X               Y               Z   
   orign x       0.00000000      0.00000000      0.00000000
   orign y       0.00000000      0.00000000      0.00000000
   orign z       0.00000000      0.00000000      0.00000000
   nuclear      -0.61578502      0.55426649      0.02874224
   electronic   -0.63793540     -0.65554900     -0.02882358
   total        -1.25372042     -0.10128251     -0.00008134
   total Dipole moment =   3.19702423    Debye
 --------------------------------------------------- 
  --- ci properties for state 4 of  DRT 1 ----
starting exptvl.x -m 200000  at Sun May 29 19:49:10 EDT 2022

 -------------------- exptvl.x ------------------------
  === dipole moment === 
                     X               Y               Z   
   orign x       0.00000000      0.00000000      0.00000000
   orign y       0.00000000      0.00000000      0.00000000
   orign z       0.00000000      0.00000000      0.00000000
   nuclear      -0.61578502      0.55426649      0.02874224
   electronic    4.58334731     -0.72903186     -0.02879480
   total         3.96756229     -0.17476537     -0.00005256
   total Dipole moment =  10.09432614    Debye
 --------------------------------------------------- 
  --- ci properties for state 1 of  DRT 2 ----
starting exptvl.x -m 200000  at Sun May 29 19:49:10 EDT 2022

 -------------------- exptvl.x ------------------------
  === dipole moment === 
                     X               Y               Z   
   orign x       0.00000000      0.00000000      0.00000000
   orign y       0.00000000      0.00000000      0.00000000
   orign z       0.00000000      0.00000000      0.00000000
   nuclear      -0.61578502      0.55426649      0.02874224
   electronic   -0.13586422     -0.65437383     -0.02881567
   total        -0.75164924     -0.10010734     -0.00007343
   total Dipole moment =   1.92737336    Debye
 --------------------------------------------------- 
  --- ci properties for state 2 of  DRT 2 ----
starting exptvl.x -m 200000  at Sun May 29 19:49:11 EDT 2022

 -------------------- exptvl.x ------------------------
  === dipole moment === 
                     X               Y               Z   
   orign x       0.00000000      0.00000000      0.00000000
   orign y       0.00000000      0.00000000      0.00000000
   orign z       0.00000000      0.00000000      0.00000000
   nuclear      -0.61578502      0.55426649      0.02874224
   electronic    3.50995957     -0.68902727     -0.02878513
   total         2.89417455     -0.13476078     -0.00004289
   total Dipole moment =   7.36423549    Debye
 --------------------------------------------------- 
  --- ci properties for state 3 of  DRT 2 ----
starting exptvl.x -m 200000  at Sun May 29 19:49:11 EDT 2022

 -------------------- exptvl.x ------------------------
  === dipole moment === 
                     X               Y               Z   
   orign x       0.00000000      0.00000000      0.00000000
   orign y       0.00000000      0.00000000      0.00000000
   orign z       0.00000000      0.00000000      0.00000000
   nuclear      -0.61578502      0.55426649      0.02874224
   electronic   -0.92891832     -0.65387500     -0.02882669
   total        -1.54470334     -0.09960851     -0.00008445
   total Dipole moment =   3.93440271    Debye
 --------------------------------------------------- 
  --- ci properties for state 4 of  DRT 2 ----
starting exptvl.x -m 200000  at Sun May 29 19:49:11 EDT 2022

 -------------------- exptvl.x ------------------------
  === dipole moment === 
                     X               Y               Z   
   orign x       0.00000000      0.00000000      0.00000000
   orign y       0.00000000      0.00000000      0.00000000
   orign z       0.00000000      0.00000000      0.00000000
   nuclear      -0.61578502      0.55426649      0.02874224
   electronic   -0.47186584     -0.66460733     -0.02882687
   total        -1.08765086     -0.11034084     -0.00008463
   total Dipole moment =   2.77872517    Debye
 --------------------------------------------------- 
 starting mo_convert.x at Sun May 29 19:49:11 EDT 2022

 -------------------- mo_convert.x ------------------------
 --------------------------------------------------- 
 starting pymolcas molcas.input.molden > molcas.output.molden at Sun May 29 19:49:12 EDT 2022

Generating link ln -s ./molcas.OrdInt ORDINT 
 -------------------- molden ------------------------
 --------------------------------------------------- 
 starting mo_convert.x at Sun May 29 19:49:40 EDT 2022

 -------------------- mo_convert.x ------------------------
 --------------------------------------------------- 
 starting pymolcas molcas.input.molden > molcas.output.molden at Sun May 29 19:49:40 EDT 2022

Generating link ln -s ./molcas.OrdInt ORDINT 
 -------------------- molden ------------------------
 --------------------------------------------------- 
 starting mo_convert.x at Sun May 29 19:50:05 EDT 2022

 -------------------- mo_convert.x ------------------------
 --------------------------------------------------- 
 starting pymolcas molcas.input.molden > molcas.output.molden at Sun May 29 19:50:05 EDT 2022

Generating link ln -s ./molcas.OrdInt ORDINT 
 -------------------- molden ------------------------
 --------------------------------------------------- 
 starting mo_convert.x at Sun May 29 19:50:26 EDT 2022

 -------------------- mo_convert.x ------------------------
 --------------------------------------------------- 
 starting pymolcas molcas.input.molden > molcas.output.molden at Sun May 29 19:50:27 EDT 2022

Generating link ln -s ./molcas.OrdInt ORDINT 
 -------------------- molden ------------------------
 --------------------------------------------------- 
 starting mo_convert.x at Sun May 29 19:50:48 EDT 2022

 -------------------- mo_convert.x ------------------------
 --------------------------------------------------- 
 starting pymolcas molcas.input.molden > molcas.output.molden at Sun May 29 19:50:48 EDT 2022

Generating link ln -s ./molcas.OrdInt ORDINT 
 -------------------- molden ------------------------
 --------------------------------------------------- 
 starting mo_convert.x at Sun May 29 19:51:10 EDT 2022

 -------------------- mo_convert.x ------------------------
 --------------------------------------------------- 
 starting pymolcas molcas.input.molden > molcas.output.molden at Sun May 29 19:51:10 EDT 2022

Generating link ln -s ./molcas.OrdInt ORDINT 
 -------------------- molden ------------------------
 --------------------------------------------------- 
 starting mo_convert.x at Sun May 29 19:51:31 EDT 2022

 -------------------- mo_convert.x ------------------------
 --------------------------------------------------- 
 starting pymolcas molcas.input.molden > molcas.output.molden at Sun May 29 19:51:32 EDT 2022

Generating link ln -s ./molcas.OrdInt ORDINT 
 -------------------- molden ------------------------
 --------------------------------------------------- 
 starting mo_convert.x at Sun May 29 19:51:53 EDT 2022

 -------------------- mo_convert.x ------------------------
 --------------------------------------------------- 
 starting pymolcas molcas.input.molden > molcas.output.molden at Sun May 29 19:51:53 EDT 2022

Generating link ln -s ./molcas.OrdInt ORDINT 
 -------------------- molden ------------------------
 --------------------------------------------------- 
 starting mo_convert.x at Sun May 29 19:52:14 EDT 2022

 -------------------- mo_convert.x ------------------------
 --------------------------------------------------- 
 starting pymolcas molcas.input.molden > molcas.output.molden at Sun May 29 19:52:15 EDT 2022

Generating link ln -s ./molcas.OrdInt ORDINT 
 -------------------- molden ------------------------
 --------------------------------------------------- 
 starting mo_convert.x at Sun May 29 19:52:36 EDT 2022

 -------------------- mo_convert.x ------------------------
 --------------------------------------------------- 
 starting pymolcas molcas.input.molden > molcas.output.molden at Sun May 29 19:52:36 EDT 2022

Generating link ln -s ./molcas.OrdInt ORDINT 
 -------------------- molden ------------------------
 --------------------------------------------------- 
 starting mo_convert.x at Sun May 29 19:52:57 EDT 2022

 -------------------- mo_convert.x ------------------------
 --------------------------------------------------- 
 starting pymolcas molcas.input.molden > molcas.output.molden at Sun May 29 19:52:58 EDT 2022

Generating link ln -s ./molcas.OrdInt ORDINT 
 -------------------- molden ------------------------
 --------------------------------------------------- 
 starting mo_convert.x at Sun May 29 19:53:23 EDT 2022

 -------------------- mo_convert.x ------------------------
 --------------------------------------------------- 
 starting pymolcas molcas.input.molden > molcas.output.molden at Sun May 29 19:53:23 EDT 2022

Generating link ln -s ./molcas.OrdInt ORDINT 
 -------------------- molden ------------------------
 --------------------------------------------------- 
 starting mo_convert.x at Sun May 29 19:53:44 EDT 2022

 -------------------- mo_convert.x ------------------------
 --------------------------------------------------- 
 starting pymolcas molcas.input.molden > molcas.output.molden at Sun May 29 19:53:45 EDT 2022

Generating link ln -s ./molcas.OrdInt ORDINT 
 -------------------- molden ------------------------
 --------------------------------------------------- 
 starting mo_convert.x at Sun May 29 19:54:06 EDT 2022

 -------------------- mo_convert.x ------------------------
 --------------------------------------------------- 
 starting pymolcas molcas.input.molden > molcas.output.molden at Sun May 29 19:54:06 EDT 2022

Generating link ln -s ./molcas.OrdInt ORDINT 
 -------------------- molden ------------------------
 --------------------------------------------------- 
 

 +++++++++++ STARTING GRADIENTS AND NAD. COUPLINGS CALCULATION +++++++++++ 

 Using new transition density code ... 
INFO: this is a frozen core gradient calculation
starting cidrt.x  -m 200000 < cidrtin.cigrd > cidrtls.cigrd at Sun May 29 19:54:28 EDT 2022

 -------------------- cidrt.x ------------------------
 total number of orbitals            :   246
 number of frozen core orbitals      :    18
 number of frozen virtual orbitals   :     0
 number of internal orbitals         :    14
 number of external orbitals         :   214
 spatial symmetry:   a  
 
 total number of configurations  282461366
 number of reference configurations  1666
 --------------------------------------------------- 
 starting tran.x -m 200000  at Sun May 29 19:54:34 EDT 2022

 -------------------- tran.x ------------------------
 --------------------------------------------------- 
 ---- Computing 8 gradient(s)  ----

 --- Computing gradient for DRT:1, State; 1

starting cigrd.x -m 200000 at Sun May 29 20:03:01 EDT 2022

 -------------------- cigrd.x ------------------------
 Total energy (ciudg) :  -286.097411554784 
  Effective energy     :  -286.097411568388 
  Delta E              :     0.000000013604 
  --------------------------------------------------- 
 starting tran.x -m 200000  at Sun May 29 20:11:26 EDT 2022

 -------------------- tran.x ------------------------
 --------------------------------------------------- 
 starting pymolcas molcas.input.alaska > molcas.output.alaska  at Sun May 29 20:16:57 EDT 2022

Generating link ln -s ./molcas.OrdInt ORDINT 
 -------------------- alaska ------------------------
 --------------------------------------------------- 
 cartesian gradient by alaska (MOLCAS)

 === Gradient of DRT 1, state 1 === 
   0.568898D-01  -0.444723D-02  -0.197642D-05
  -0.450267D-01   0.260288D-02   0.996942D-06
   0.579225D-02   0.268445D-03  -0.273179D-01
   0.579147D-02   0.234219D-03   0.273184D-01
  -0.415376D-02  -0.985584D-04  -0.194499D-01
  -0.415430D-02  -0.122909D-03   0.194497D-01
   0.497232D-02  -0.128022D-03  -0.203379D-07
  -0.956771D-02   0.631800D-03  -0.106108D-01
  -0.956802D-02   0.618519D-03   0.106113D-01
   0.842688D-03   0.182897D-03   0.235564D-02
   0.842756D-03   0.185847D-03  -0.235538D-02
  -0.105828D-02  -0.561690D-05   0.121093D-02
  -0.105825D-02  -0.409842D-05  -0.121097D-02
  -0.544222D-03   0.818321D-04   0.405309D-07
===================================
 --- Computing gradient for DRT:1, State; 2

starting cigrd.x -m 200000 at Sun May 29 20:18:18 EDT 2022

 -------------------- cigrd.x ------------------------
 Total energy (ciudg) :  -285.943462830275 
  Effective energy     :  -285.943462843938 
  Delta E              :     0.000000013663 
  --------------------------------------------------- 
 starting tran.x -m 200000  at Sun May 29 20:27:03 EDT 2022

 -------------------- tran.x ------------------------
 --------------------------------------------------- 
 starting pymolcas molcas.input.alaska > molcas.output.alaska  at Sun May 29 20:32:43 EDT 2022

Generating link ln -s ./molcas.OrdInt ORDINT 
 -------------------- alaska ------------------------
 --------------------------------------------------- 
 cartesian gradient by alaska (MOLCAS)

 === Gradient of DRT 1, state 2 === 
  -0.188027D-01   0.913046D-02   0.544631D-05
   0.168675D-01  -0.303419D-02  -0.166419D-05
  -0.185815D-01  -0.485168D-04  -0.456027D-03
  -0.185815D-01  -0.491235D-04   0.455434D-03
   0.162461D-01  -0.324712D-04  -0.485766D-02
   0.162460D-01  -0.385517D-04   0.485807D-02
   0.375790D-02  -0.826482D-04   0.158437D-07
   0.116134D-02  -0.299992D-02   0.437094D-02
   0.116147D-02  -0.299445D-02  -0.437465D-02
  -0.208307D-03   0.677960D-04  -0.620230D-03
  -0.208322D-03   0.670181D-04   0.620302D-03
   0.399836D-03   0.182831D-05   0.854502D-04
   0.399838D-03   0.193900D-05  -0.854322D-04
   0.142434D-03   0.108390D-04   0.775676D-08
===================================
 --- Computing gradient for DRT:1, State; 3

starting cigrd.x -m 200000 at Sun May 29 20:34:03 EDT 2022

 -------------------- cigrd.x ------------------------
 Total energy (ciudg) :  -285.921126643348 
  Effective energy     :  -285.921126658071 
  Delta E              :     0.000000014723 
  --------------------------------------------------- 
 starting tran.x -m 200000  at Sun May 29 20:42:18 EDT 2022

 -------------------- tran.x ------------------------
 --------------------------------------------------- 
 starting pymolcas molcas.input.alaska > molcas.output.alaska  at Sun May 29 20:47:45 EDT 2022

Generating link ln -s ./molcas.OrdInt ORDINT 
 -------------------- alaska ------------------------
 --------------------------------------------------- 
 cartesian gradient by alaska (MOLCAS)

 === Gradient of DRT 1, state 3 === 
   0.397916D-01  -0.918766D-03  -0.775777D-08
  -0.293671D-01   0.171549D-02   0.657381D-06
   0.402619D-01  -0.220002D-03  -0.129753D-02
   0.402618D-01  -0.221645D-03   0.129840D-02
  -0.343548D-01   0.240954D-03   0.725749D-02
  -0.343546D-01   0.250025D-03  -0.725817D-02
  -0.278376D-02   0.562294D-04  -0.211519D-08
  -0.935827D-02  -0.457794D-03  -0.849821D-02
  -0.935852D-02  -0.468428D-03   0.849737D-02
   0.634098D-03   0.253027D-04   0.139568D-02
   0.634132D-03   0.270517D-04  -0.139563D-02
  -0.772116D-03  -0.233544D-04  -0.167102D-03
  -0.772109D-03  -0.235604D-04   0.167057D-03
  -0.462274D-03   0.184950D-04   0.185204D-08
===================================
 --- Computing gradient for DRT:1, State; 4

starting cigrd.x -m 200000 at Sun May 29 20:49:04 EDT 2022

 -------------------- cigrd.x ------------------------
 Total energy (ciudg) :  -285.869573092484 
  Effective energy     :  -285.869573105554 
  Delta E              :     0.000000013070 
  --------------------------------------------------- 
 starting tran.x -m 200000  at Sun May 29 20:57:19 EDT 2022

 -------------------- tran.x ------------------------
 --------------------------------------------------- 
 starting pymolcas molcas.input.alaska > molcas.output.alaska  at Sun May 29 21:02:46 EDT 2022

Generating link ln -s ./molcas.OrdInt ORDINT 
 -------------------- alaska ------------------------
 --------------------------------------------------- 
 cartesian gradient by alaska (MOLCAS)

 === Gradient of DRT 1, state 4 === 
   0.789651D-02   0.209039D-02   0.142218D-05
   0.114168D-01  -0.347874D-04   0.136960D-06
   0.439482D-01  -0.305160D-03  -0.231426D-01
   0.439475D-01  -0.334168D-03   0.231435D-01
  -0.488598D-01   0.313950D-03  -0.297746D-01
  -0.488606D-01   0.276701D-03   0.297736D-01
  -0.191815D-02  -0.826969D-04  -0.608671D-07
  -0.390724D-02  -0.109931D-02  -0.438808D-02
  -0.390735D-02  -0.110480D-02   0.438659D-02
  -0.335440D-03   0.993638D-04  -0.919879D-03
  -0.335463D-03   0.982139D-04   0.919989D-03
  -0.282584D-03   0.185884D-04  -0.630658D-04
  -0.282592D-03   0.185114D-04   0.630720D-04
   0.148021D-02   0.452089D-04   0.492358D-07
===================================
 --- Computing gradient for DRT:2, State; 1

starting cigrd.x -m 200000 at Sun May 29 21:04:05 EDT 2022

 -------------------- cigrd.x ------------------------
 Total energy (ciudg) :  -285.949659470468 
  Effective energy     :  -285.949659483839 
  Delta E              :     0.000000013371 
  --------------------------------------------------- 
 starting tran.x -m 200000  at Sun May 29 21:12:21 EDT 2022

 -------------------- tran.x ------------------------
 --------------------------------------------------- 
 starting pymolcas molcas.input.alaska > molcas.output.alaska  at Sun May 29 21:17:51 EDT 2022

Generating link ln -s ./molcas.OrdInt ORDINT 
 -------------------- alaska ------------------------
 --------------------------------------------------- 
 cartesian gradient by alaska (MOLCAS)

 === Gradient of DRT 2, state 1 === 
   0.641947D-01  -0.722558D-02  -0.360559D-05
  -0.188162D-01  -0.302897D-02  -0.217522D-05
  -0.291640D-01   0.222225D-02   0.817989D-02
  -0.291638D-01   0.223245D-02  -0.817795D-02
   0.310667D-01   0.176183D-02   0.279441D-01
   0.310675D-01   0.179681D-02  -0.279409D-01
  -0.332991D-01  -0.166791D-02  -0.150752D-05
  -0.746685D-02   0.263282D-02  -0.923533D-02
  -0.746712D-02   0.262126D-02   0.923840D-02
  -0.494766D-03  -0.313306D-03   0.289253D-02
  -0.494696D-03  -0.309685D-03  -0.289293D-02
  -0.143570D-03  -0.191836D-03   0.881674D-03
  -0.143535D-03  -0.190727D-03  -0.881913D-03
   0.324667D-03  -0.339409D-03  -0.213132D-06
===================================
 --- Computing gradient for DRT:2, State; 2

starting cigrd.x -m 200000 at Sun May 29 21:19:11 EDT 2022

 -------------------- cigrd.x ------------------------
 Total energy (ciudg) :  -285.945801593797 
  Effective energy     :  -285.945801607541 
  Delta E              :     0.000000013744 
  --------------------------------------------------- 
 starting tran.x -m 200000  at Sun May 29 21:27:15 EDT 2022

 -------------------- tran.x ------------------------
 --------------------------------------------------- 
 starting pymolcas molcas.input.alaska > molcas.output.alaska  at Sun May 29 21:32:52 EDT 2022

Generating link ln -s ./molcas.OrdInt ORDINT 
 -------------------- alaska ------------------------
 --------------------------------------------------- 
 cartesian gradient by alaska (MOLCAS)

 === Gradient of DRT 2, state 2 === 
  -0.130896D-01   0.808992D-02   0.486816D-05
   0.116120D-01   0.548967D-02   0.361236D-05
  -0.177771D-01  -0.269404D-02  -0.101122D-02
  -0.177771D-01  -0.269534D-02   0.100733D-02
   0.155233D-01  -0.231956D-02  -0.386507D-02
   0.155232D-01  -0.232441D-02   0.386258D-02
   0.273310D-02   0.239221D-02   0.156059D-05
   0.145191D-02  -0.379351D-02   0.503499D-02
   0.145207D-02  -0.378720D-02  -0.503970D-02
  -0.219973D-03   0.469189D-03  -0.492685D-03
  -0.219984D-03   0.468574D-03   0.493275D-03
   0.332965D-03   0.211495D-03   0.142494D-03
   0.332967D-03   0.211676D-03  -0.142217D-03
   0.122193D-03   0.281319D-03   0.176248D-06
===================================
 --- Computing gradient for DRT:2, State; 3

starting cigrd.x -m 200000 at Sun May 29 21:34:12 EDT 2022

 -------------------- cigrd.x ------------------------
 Total energy (ciudg) :  -285.939243193638 
  Effective energy     :  -285.939243208375 
  Delta E              :     0.000000014737 
  --------------------------------------------------- 
 starting tran.x -m 200000  at Sun May 29 21:42:28 EDT 2022

 -------------------- tran.x ------------------------
 --------------------------------------------------- 
 starting pymolcas molcas.input.alaska > molcas.output.alaska  at Sun May 29 21:47:59 EDT 2022

Generating link ln -s ./molcas.OrdInt ORDINT 
 -------------------- alaska ------------------------
 --------------------------------------------------- 
 cartesian gradient by alaska (MOLCAS)

 === Gradient of DRT 2, state 3 === 
   0.192749D-01   0.299752D-02   0.215417D-05
  -0.146355D-01  -0.244064D-03  -0.353171D-06
   0.405509D-01  -0.312652D-04  -0.935814D-03
   0.405508D-01  -0.324544D-04   0.936909D-03
  -0.424526D-01   0.378869D-03   0.231160D-02
  -0.424525D-01   0.381737D-03  -0.231234D-02
   0.181303D-01  -0.223550D-03   0.129499D-06
  -0.953986D-02  -0.159561D-02  -0.717774D-02
  -0.954006D-02  -0.160459D-02   0.717546D-02
   0.127393D-02   0.330204D-05   0.745883D-03
   0.127395D-02   0.423647D-05  -0.745838D-03
  -0.619549D-03  -0.336643D-04  -0.561506D-03
  -0.619564D-03  -0.343685D-04   0.561448D-03
  -0.119521D-02   0.339059D-04   0.152969D-08
===================================
 --- Computing gradient for DRT:2, State; 4

starting cigrd.x -m 200000 at Sun May 29 21:49:22 EDT 2022

 -------------------- cigrd.x ------------------------
 Total energy (ciudg) :  -285.915001133437 
  Effective energy     :  -285.915001147348 
[...]
   2.221326E+00  -5.179351E+00  -3.210862E-03
   5.601200E-01   1.538441E+00  -4.461972E-01
   5.601045E-01   1.537886E+00   4.481356E-01
  -8.531117E-01   1.301995E+00  -1.984717E+00
  -8.531739E-01   1.299515E+00   1.986321E+00
   2.192324E+00  -1.424394E+00  -8.594479E-04
   1.009472E+00   4.383895E-01   1.663614E+00
   1.009518E+00   4.404737E-01  -1.663032E+00
   1.449118E-02  -2.327007E-01  -2.172687E-01
   1.448641E-02  -2.329719E-01   2.169766E-01
   2.050651E-02  -1.129297E-01  -3.761226E-02
   2.050537E-02  -1.129750E-01   3.747193E-02
  -2.160479E-02  -1.464388E-01  -9.216645E-05
===================================

 Norm of the nonadiabatic coupling vector: 
 |h(drt2.state1,drt2.state2)|= 10.0406820712037 

 Cross-check of the non-adiabatic coupling term:
  DeltaE= -0.00385787670001037

  <L>*dE form CIGRD   :   -0.0000047876    -0.0004277151    -0.0000002662
  <L>*dE form NADCOUPL:    0.0000001987    -0.0000003963     0.0006891293
 -------------------------------------------------------------------------
  Difference          :   -0.0000049864    -0.0004273188    -0.0006893955

 NOTE: This test is meaningless at a point of conical intersection!


 -------- NAD. COUPLING for DRT:2 STATE:1 AND DRT:2 STATE:3 --------
opening file =ciudgls.drt2.sp
opening file =ciudgls.drt2.sp
extracted: energy1= -285.9496594703   energy2=-285.9392431934   deltae=-0.0104162769000027
starting cigrd.x -m 200000 at Sun May 29 23:55:04 EDT 2022

 -------------------- cigrd.x ------------------------
 Total energy (ciudg) :     0.000000000310 
  Effective energy     :    -0.000000000538 
  Delta E              :     0.000000000848 
  --------------------------------------------------- 
 starting tran.x -m 200000  at Mon May 30 00:03:03 EDT 2022

 -------------------- tran.x ------------------------
 --------------------------------------------------- 
  adding keyword NONUC to alaska input
starting pymolcas molcas.input.alaska > molcas.output.alaska  at Mon May 30 00:08:25 EDT 2022

Generating link ln -s ./molcas.OrdInt ORDINT 
 -------------------- alaska ------------------------
 --------------------------------------------------- 
 cartesian gradient by alaska (MOLCAS)

 Calculating the Dx(r,s) term of D[CSF] nonadiabatic coupling term.
dxcalc: INPUT LINE SEPARATOR 
 
starting tran.x -m 200000  at Mon May 30 00:09:38 EDT 2022

 -------------------- tran.x ------------------------
 --------------------------------------------------- 
 starting tdmrunfile.x > tdmrunfilels at Mon May 30 00:09:38 EDT 2022

 -------------------- tdmrunfile.x ------------------------
 --------------------------------------------------- 
 starting pymolcas molcas.input.alaska > molcas.output.alaska  at Mon May 30 00:09:38 EDT 2022

Generating link ln -s ./molcas.OrdInt ORDINT 
 -------------------- alaska ------------------------
 --------------------------------------------------- 
 
 === Non-adiabatic coupling for DRT 2 STATE 1 and DRT 2 STATE 3 === 
  -1.637839E-05  -6.855828E-04   1.096243E+00
   1.261581E-04   5.557716E-03  -8.882634E+00
  -8.563031E-01   2.819165E-02   4.225014E+00
   8.561814E-01  -3.347885E-02   4.224992E+00
  -2.066317E+00  -1.267877E-02  -4.013949E+00
   2.066440E+00   1.770210E-02  -4.013869E+00
  -1.015839E-04  -4.431885E-03   7.083270E+00
   3.749497E-02   1.167470E-01   2.555571E-02
  -3.749651E-02  -1.167789E-01   2.540858E-02
  -7.396625E-02  -6.570232E-02  -2.069500E-02
   7.396645E-02   6.572791E-02  -2.060961E-02
  -5.172691E-02   1.583756E-02   5.036140E-02
   5.172643E-02  -1.590040E-02   5.034440E-02
  -1.911168E-06  -1.109060E-04   1.766745E-01
===================================

 Norm of the nonadiabatic coupling vector: 
 |h(drt2.state1,drt2.state3)|= 14.4326853143481 

 Cross-check of the non-adiabatic coupling term:
  DeltaE= -0.0104162769000027

  <L>*dE form CIGRD   :   -0.0000129266    -0.0011548318    -0.0000007187
  <L>*dE form NADCOUPL:    0.0002423676     0.0128147319     0.0000080039
 -------------------------------------------------------------------------
  Difference          :   -0.0002552942    -0.0139695637    -0.0000087226

 NOTE: This test is meaningless at a point of conical intersection!


 -------- NAD. COUPLING for DRT:2 STATE:1 AND DRT:2 STATE:4 --------
opening file =ciudgls.drt2.sp
opening file =ciudgls.drt2.sp
extracted: energy1= -285.9496594703   energy2=-285.9150011332   deltae=-0.0346583370999838
starting cigrd.x -m 200000 at Mon May 30 00:10:51 EDT 2022

 -------------------- cigrd.x ------------------------
 Total energy (ciudg) :    -0.000000000366 
  Effective energy     :    -0.000000007941 
  Delta E              :     0.000000007575 
  --------------------------------------------------- 
 starting tran.x -m 200000  at Mon May 30 00:19:55 EDT 2022

 -------------------- tran.x ------------------------
 --------------------------------------------------- 
  adding keyword NONUC to alaska input
starting pymolcas molcas.input.alaska > molcas.output.alaska  at Mon May 30 00:25:16 EDT 2022

Generating link ln -s ./molcas.OrdInt ORDINT 
 -------------------- alaska ------------------------
 --------------------------------------------------- 
 cartesian gradient by alaska (MOLCAS)

 Calculating the Dx(r,s) term of D[CSF] nonadiabatic coupling term.
dxcalc: INPUT LINE SEPARATOR 
 
starting tran.x -m 200000  at Mon May 30 00:26:24 EDT 2022

 -------------------- tran.x ------------------------
 --------------------------------------------------- 
 starting tdmrunfile.x > tdmrunfilels at Mon May 30 00:26:24 EDT 2022

 -------------------- tdmrunfile.x ------------------------
 --------------------------------------------------- 
 starting pymolcas molcas.input.alaska > molcas.output.alaska  at Mon May 30 00:26:24 EDT 2022

Generating link ln -s ./molcas.OrdInt ORDINT 
 -------------------- alaska ------------------------
 --------------------------------------------------- 
 
 === Non-adiabatic coupling for DRT 2 STATE 1 and DRT 2 STATE 4 === 
  -8.019090E-03   9.020125E-03   5.358179E-06
  -3.804607E-01   1.457813E-02   3.546564E-06
   1.624717E+00  -1.219436E-02  -4.540204E-01
   1.624702E+00  -1.276245E-02   4.540509E-01
  -1.685241E+00   2.064109E-03  -5.702364E-01
  -1.685259E+00   1.350478E-03   5.701921E-01
   5.887724E-01   1.051408E-03   8.827482E-06
  -2.365091E-02  -7.495977E-03  -2.294946E-02
  -2.365140E-02  -7.524749E-03   2.293928E-02
   1.322304E-02   3.783790E-03  -2.511498E-02
   1.322241E-02   3.752459E-03   2.511996E-02
  -2.139615E-02   1.585427E-03  -1.951704E-02
  -2.139641E-02   1.561079E-03   1.951859E-02
  -1.070032E-02   3.833138E-03   2.266874E-06
===================================

 Norm of the nonadiabatic coupling vector: 
 |h(drt2.state1,drt2.state4)|= 3.5383468978933 

 Cross-check of the non-adiabatic coupling term:
  DeltaE= -0.0346583370999838

  <L>*dE form CIGRD   :   -0.0000430110    -0.0038425005    -0.0000023914
  <L>*dE form NADCOUPL:    0.0000000994     0.0000000208     0.0003399029
 -------------------------------------------------------------------------
  Difference          :   -0.0000431104    -0.0038425213    -0.0003422944

 NOTE: This test is meaningless at a point of conical intersection!


 -------- NAD. COUPLING for DRT:2 STATE:2 AND DRT:2 STATE:3 --------
opening file =ciudgls.drt2.sp
opening file =ciudgls.drt2.sp
extracted: energy1= -285.9458015936   energy2=-285.9392431934   deltae=-0.00655840019999232
starting cigrd.x -m 200000 at Mon May 30 00:27:35 EDT 2022

 -------------------- cigrd.x ------------------------
 Total energy (ciudg) :    -0.000000000187 
  Effective energy     :    -0.000000000267 
  Delta E              :     0.000000000080 
  --------------------------------------------------- 
 starting tran.x -m 200000  at Mon May 30 00:35:54 EDT 2022

 -------------------- tran.x ------------------------
 --------------------------------------------------- 
  adding keyword NONUC to alaska input
starting pymolcas molcas.input.alaska > molcas.output.alaska  at Mon May 30 00:41:10 EDT 2022

Generating link ln -s ./molcas.OrdInt ORDINT 
 -------------------- alaska ------------------------
 --------------------------------------------------- 
 cartesian gradient by alaska (MOLCAS)

 Calculating the Dx(r,s) term of D[CSF] nonadiabatic coupling term.
dxcalc: INPUT LINE SEPARATOR 
 
starting tran.x -m 200000  at Mon May 30 00:42:20 EDT 2022

 -------------------- tran.x ------------------------
 --------------------------------------------------- 
 starting tdmrunfile.x > tdmrunfilels at Mon May 30 00:42:20 EDT 2022

 -------------------- tdmrunfile.x ------------------------
 --------------------------------------------------- 
 starting pymolcas molcas.input.alaska > molcas.output.alaska  at Mon May 30 00:42:20 EDT 2022

Generating link ln -s ./molcas.OrdInt ORDINT 
 -------------------- alaska ------------------------
 --------------------------------------------------- 
 
 === Non-adiabatic coupling for DRT 2 STATE 2 and DRT 2 STATE 3 === 
  -8.327645E-06  -3.759807E-04   5.995465E-01
   4.581505E-05   1.990275E-03  -3.183466E+00
  -4.158115E-01  -8.364825E-01   1.489147E+00
   4.157660E-01   8.346188E-01   1.490203E+00
  -6.852595E-01   6.189690E-01  -1.419274E+00
   6.853035E-01  -6.171885E-01  -1.420030E+00
  -3.752133E-05  -1.574695E-03   2.514683E+00
  -1.220433E-02  -2.167187E-01  -9.018564E-02
   1.220681E-02   2.168315E-01  -8.991375E-02
  -2.391677E-02   3.418912E-01   5.462261E-03
   2.391616E-02  -3.418973E-01   5.034909E-03
  -1.848341E-02  -1.157400E-01   1.828788E-02
   1.848326E-02   1.157162E-01   1.843372E-02
  -7.741129E-07  -4.049976E-05   6.470020E-02
===================================

 Norm of the nonadiabatic coupling vector: 
 |h(drt2.state2,drt2.state3)|= 5.39534679961831 

 Cross-check of the non-adiabatic coupling term:
  DeltaE= -0.00655840019999232

  <L>*dE form CIGRD   :   -0.0000081390    -0.0007271167    -0.0000004525
  <L>*dE form NADCOUPL:   -0.0006355068     0.0018423019     0.0000010958
 -------------------------------------------------------------------------
  Difference          :    0.0006273679    -0.0025694186    -0.0000015484

 NOTE: This test is meaningless at a point of conical intersection!


 -------- NAD. COUPLING for DRT:2 STATE:2 AND DRT:2 STATE:4 --------
opening file =ciudgls.drt2.sp
opening file =ciudgls.drt2.sp
extracted: energy1= -285.9458015936   energy2=-285.9150011332   deltae=-0.0308004603999734
starting cigrd.x -m 200000 at Mon May 30 00:43:26 EDT 2022

 -------------------- cigrd.x ------------------------
 Total energy (ciudg) :    -0.000000000444 
  Effective energy     :    -0.000000007240 
  Delta E              :     0.000000006796 
  --------------------------------------------------- 
 starting tran.x -m 200000  at Mon May 30 00:51:35 EDT 2022

 -------------------- tran.x ------------------------
 --------------------------------------------------- 
  adding keyword NONUC to alaska input
starting pymolcas molcas.input.alaska > molcas.output.alaska  at Mon May 30 00:56:59 EDT 2022

Generating link ln -s ./molcas.OrdInt ORDINT 
 -------------------- alaska ------------------------
 --------------------------------------------------- 
 cartesian gradient by alaska (MOLCAS)

 Calculating the Dx(r,s) term of D[CSF] nonadiabatic coupling term.
dxcalc: INPUT LINE SEPARATOR 
 
starting tran.x -m 200000  at Mon May 30 00:58:07 EDT 2022

 -------------------- tran.x ------------------------
 --------------------------------------------------- 
 starting tdmrunfile.x > tdmrunfilels at Mon May 30 00:58:07 EDT 2022

 -------------------- tdmrunfile.x ------------------------
 --------------------------------------------------- 
 starting pymolcas molcas.input.alaska > molcas.output.alaska  at Mon May 30 00:58:08 EDT 2022

Generating link ln -s ./molcas.OrdInt ORDINT 
 -------------------- alaska ------------------------
 --------------------------------------------------- 
 
 === Non-adiabatic coupling for DRT 2 STATE 2 and DRT 2 STATE 4 === 
  -2.679304E-02  -4.111341E-03  -2.919161E-06
  -1.009069E-01  -2.137813E-01  -1.349874E-04
   4.406763E-01   6.316791E-02  -1.193119E-01
   4.406731E-01   6.301869E-02   1.194033E-01
  -4.565224E-01   8.922409E-02  -1.500875E-01
  -4.565256E-01   8.903565E-02   1.501864E-01
   1.479322E-01  -9.163808E-02  -5.519563E-05
   9.210987E-03   2.995782E-02   2.077127E-02
   9.211421E-03   2.998368E-02  -2.073350E-02
   3.570031E-03  -2.169133E-02  -6.398960E-03
   3.569998E-03  -2.169933E-02   6.371860E-03
  -6.253714E-03  -6.521088E-03  -4.786106E-03
  -6.253811E-03  -6.526695E-03   4.777720E-03
  -3.146654E-03  -1.062112E-02  -6.585946E-06
===================================

 Norm of the nonadiabatic coupling vector: 
 |h(drt2.state2,drt2.state4)|= 0.996870000817241 

 Cross-check of the non-adiabatic coupling term:
  DeltaE= -0.0308004603999734

  <L>*dE form CIGRD   :   -0.0000382234    -0.0034147854    -0.0000021252
  <L>*dE form NADCOUPL:   -0.0000001769     0.0000007866    -0.0013298565
 -------------------------------------------------------------------------
  Difference          :   -0.0000380464    -0.0034155720     0.0013277313

 NOTE: This test is meaningless at a point of conical intersection!


 -------- NAD. COUPLING for DRT:2 STATE:3 AND DRT:2 STATE:4 --------
opening file =ciudgls.drt2.sp
opening file =ciudgls.drt2.sp
extracted: energy1= -285.9392431934   energy2=-285.9150011332   deltae=-0.0242420601999811
starting cigrd.x -m 200000 at Mon May 30 00:59:13 EDT 2022

 -------------------- cigrd.x ------------------------
 Total energy (ciudg) :    -0.000000000310 
  Effective energy     :    -0.000000001807 
  Delta E              :     0.000000001497 
  --------------------------------------------------- 
 starting tran.x -m 200000  at Mon May 30 01:07:21 EDT 2022

 -------------------- tran.x ------------------------
 --------------------------------------------------- 
  adding keyword NONUC to alaska input
starting pymolcas molcas.input.alaska > molcas.output.alaska  at Mon May 30 01:12:45 EDT 2022

Generating link ln -s ./molcas.OrdInt ORDINT 
 -------------------- alaska ------------------------
 --------------------------------------------------- 
 cartesian gradient by alaska (MOLCAS)

 Calculating the Dx(r,s) term of D[CSF] nonadiabatic coupling term.
dxcalc: INPUT LINE SEPARATOR 
 
starting tran.x -m 200000  at Mon May 30 01:13:54 EDT 2022

 -------------------- tran.x ------------------------
 --------------------------------------------------- 
 starting tdmrunfile.x > tdmrunfilels at Mon May 30 01:13:54 EDT 2022

 -------------------- tdmrunfile.x ------------------------
 --------------------------------------------------- 
 starting pymolcas molcas.input.alaska > molcas.output.alaska  at Mon May 30 01:13:54 EDT 2022

Generating link ln -s ./molcas.OrdInt ORDINT 
 -------------------- alaska ------------------------
 --------------------------------------------------- 
 
 === Non-adiabatic coupling for DRT 2 STATE 3 and DRT 2 STATE 4 === 
   3.797297E-06   1.503673E-04  -2.400066E-01
  -2.454197E-05  -1.052295E-03   1.681266E+00
   9.492878E-02  -1.321500E-03  -4.202608E-01
  -9.491726E-02   1.847756E-03  -4.202629E-01
   8.483149E-01  -4.193545E-03   2.418488E-01
  -8.483231E-01   3.890346E-03   2.418283E-01
   1.511850E-05   6.682383E-04  -1.067570E+00
  -2.674532E-02  -5.289248E-03   1.051398E-03
   2.674533E-02   5.288036E-03   1.058677E-03
  -9.447390E-03   2.403778E-03  -1.850709E-02
   9.447595E-03  -2.380701E-03  -1.850971E-02
  -1.975239E-02   5.001866E-04   1.599923E-02
   1.975210E-02  -5.201866E-04   1.599918E-02
  -4.331084E-09   4.481943E-06  -7.137305E-03
===================================

 Norm of the nonadiabatic coupling vector: 
 |h(drt2.state3,drt2.state4)|= 2.44033500359032 

 Cross-check of the non-adiabatic coupling term:
  DeltaE= -0.0242420601999811

  <L>*dE form CIGRD   :   -0.0000300844    -0.0026876687    -0.0000016727
  <L>*dE form NADCOUPL:   -0.0000307270    -0.0026903243    -0.0000016431
 -------------------------------------------------------------------------
  Difference          :    0.0000006426     0.0000026556    -0.0000000296

 NOTE: This test is meaningless at a point of conical intersection!



============== timings ===================

   unik.gets.x    
   mcdrt.x        
   mcuft.x        
 * mcscf.x          walltime    0:03:00
   mcpc.x         
   mcpc.x         
   mcpc.x         
   mcpc.x         
   exptvl.x       
   exptvl.x       
   exptvl.x       
   exptvl.x       
   cidrt.x        
   cidrt.x        
 * tran.x           walltime    0:07:47
 * pciudg.x -m 19000   walltime   17:22:10
 * cipc.x           walltime    0:00:12
 * pciudg.x -m 19000   walltime   37:51:16
 * cipc.x           walltime    0:00:20
 * reindex.x        walltime    0:04:02
 * pciudg.x -m 19000   walltime    1:52:53
 * transci.x        walltime    0:02:20
 * transci.x        walltime    0:02:19
 * transci.x        walltime    0:02:18
 * transci.x        walltime    0:02:13
 * transci.x        walltime    0:02:12
 * transci.x        walltime    0:02:12
 * transci.x        walltime    0:04:16
 * transci.x        walltime    0:04:16
 * transci.x        walltime    0:04:16
 * transci.x        walltime    0:04:11
 * transci.x        walltime    0:04:10
 * transci.x        walltime    0:04:11
   exptvl.x       
   exptvl.x       
   exptvl.x       
   exptvl.x       
   exptvl.x       
   exptvl.x       
   exptvl.x       
   exptvl.x       
   mo_convert.x   
   mo_convert.x   
   mo_convert.x   
   mo_convert.x   
   mo_convert.x   
   mo_convert.x   
   mo_convert.x   
   mo_convert.x   
   mo_convert.x   
   mo_convert.x   
   mo_convert.x   
   mo_convert.x   
   mo_convert.x   
   mo_convert.x   
 * cidrt.x          walltime    0:00:06
 * tran.x           walltime    0:08:26
 * cigrd.x          walltime    0:08:26
 * tran.x           walltime    0:05:31
 * cigrd.x          walltime    0:08:44
 * tran.x           walltime    0:05:39
 * cigrd.x          walltime    0:08:14
 * tran.x           walltime    0:05:26
 * cigrd.x          walltime    0:08:14
 * tran.x           walltime    0:05:26
 * cigrd.x          walltime    0:08:15
 * tran.x           walltime    0:05:30
 * cigrd.x          walltime    0:08:02
 * tran.x           walltime    0:05:36
 * cigrd.x          walltime    0:08:15
 * tran.x           walltime    0:05:31
 * cigrd.x          walltime    0:08:42
 * tran.x           walltime    0:05:31
 * cigrd.x          walltime    0:08:21
 * tran.x           walltime    0:05:19
   tran.x         
   tdmrunfile.x   
 * cigrd.x          walltime    0:08:15
 * tran.x           walltime    0:05:28
   tran.x         
   tdmrunfile.x   
 * cigrd.x          walltime    0:08:03
 * tran.x           walltime    0:05:19
   tran.x         
   tdmrunfile.x   
 * cigrd.x          walltime    0:07:48
 * tran.x           walltime    0:05:17
   tran.x         
   tdmrunfile.x   
 * cigrd.x          walltime    0:07:58
 * tran.x           walltime    0:05:23
   tran.x         
   tdmrunfile.x   
 * cigrd.x          walltime    0:08:04
 * tran.x           walltime    0:05:10
   tran.x         
   tdmrunfile.x   
 * cigrd.x          walltime    0:08:01
 * tran.x           walltime    0:05:16
   tran.x         
   tdmrunfile.x   
 * cigrd.x          walltime    0:07:57
 * tran.x           walltime    0:05:21
   tran.x         
   tdmrunfile.x   
 * cigrd.x          walltime    0:09:03
 * tran.x           walltime    0:05:21
   tran.x         
   tdmrunfile.x   
 * cigrd.x          walltime    0:08:18
 * tran.x           walltime    0:05:15
   tran.x         
   tdmrunfile.x   
 * cigrd.x          walltime    0:08:08
 * tran.x           walltime    0:05:23
   tran.x         
   tdmrunfile.x   
 * cigrd.x          walltime    0:08:07
 * tran.x           walltime    0:05:23
   tran.x         
   tdmrunfile.x   

==========================================

