[Molden Format]
[Atoms] AU
  N     1    7     0.0088599900   -4.2725018000    0.0000000100        
  C     2    6     0.1143943300   -1.7339816800    0.0000000000        
  C     3    6    -2.2257662100   -0.3737079800    0.0000000100        
  C     4    6     2.4018065900   -0.2788272700   -0.0000000300        
  C     5    6    -2.2439812500    2.2078724700   -0.0000000100        
  C     6    6     2.3342884000    2.2991455900    0.0000000000        
  C     7    6     0.0231153400    3.5733432000    0.0000000000        
  H     8    1    -4.0647629800   -7.3447418300    0.0000000100        
  H     9    1     1.8188095500   -4.9964270100    0.0000000200        
  H    10    1    -3.9476673300   -1.4388691000    0.0000000100        
  H    11    1     4.1775953000   -1.2622614700   -0.0000000300        
  H    12    1    -4.0091743300    3.2089730500   -0.0000000300        
  H    13    1     4.0617364800    3.3642852600    0.0000000100        
  H    14    1    -0.0164860800    5.6010230100    0.0000000100        
[5D]
[7F]
[GTO]
  1  0
   s    12 1.00
  0.114200D+05  0.172695D-04
  0.171200D+04  0.134411D-03
  0.389300D+03  0.694561D-03
  0.110000D+03  0.278531D-02
  0.355700D+02  0.863457D-02
  0.125400D+02  0.199805D-01
  0.464400D+01  0.262908D-01
  0.129300D+01 -0.243845D-01
  0.511800D+00 -0.924934D-01
  0.178700D+00 -0.339683D+00
  0.246240D-01  0.345111D+00
  0.112530D-01  0.752750D+00
   s    10 1.00
  0.114200D+05  0.523000D-03
  0.171200D+04  0.404500D-02
  0.389300D+03  0.207750D-01
  0.110000D+03  0.807269D-01
  0.355700D+02  0.233074D+00
  0.125400D+02  0.433501D+00
  0.464400D+01  0.347472D+00
  0.129300D+01  0.412620D-01
  0.511800D+00 -0.850799D-02
  0.178700D+00  0.238400D-02
   s    10 1.00
  0.114200D+05 -0.115000D-03
  0.171200D+04 -0.895000D-03
  0.389300D+03 -0.462400D-02
  0.110000D+03 -0.185280D-01
  0.355700D+02 -0.573390D-01
  0.125400D+02 -0.132076D+00
  0.464400D+01 -0.172510D+00
  0.129300D+01  0.151814D+00
  0.511800D+00  0.599944D+00
  0.178700D+00  0.387462D+00
   s     1 1.00
  0.129300D+01  0.100000D+01
   s     1 1.00
  0.178700D+00  0.100000D+01
   p     5 1.00
  0.266300D+02  0.146700D-01
  0.594800D+01  0.917640D-01
  0.174200D+01  0.298683D+00
  0.555000D+00  0.498487D+00
  0.172500D+00  0.337023D+00
   p     1 1.00
  0.174200D+01  0.100000D+01
   p     1 1.00
  0.555000D+00  0.100000D+01
   d     1 1.00
  0.165400D+01  0.100000D+01
   d     1 1.00
  0.469000D+00  0.100000D+01
   f     1 1.00
  0.109300D+01  0.100000D+01
  
  2  0
   s    10 1.00
  0.823600D+04  0.531000D-03
  0.123500D+04  0.410800D-02
  0.280800D+03  0.210870D-01
  0.792700D+02  0.818530D-01
  0.255900D+02  0.234817D+00
  0.899700D+01  0.434401D+00
  0.331900D+01  0.346129D+00
  0.905900D+00  0.393780D-01
  0.364300D+00 -0.898300D-02
  0.128500D+00  0.238500D-02
   s    10 1.00
  0.823600D+04 -0.113000D-03
  0.123500D+04 -0.878000D-03
  0.280800D+03 -0.454000D-02
  0.792700D+02 -0.181330D-01
  0.255900D+02 -0.557600D-01
  0.899700D+01 -0.126895D+00
  0.331900D+01 -0.170352D+00
  0.905900D+00  0.140382D+00
  0.364300D+00  0.598684D+00
  0.128500D+00  0.395389D+00
   s     1 1.00
  0.905900D+00  0.100000D+01
   s     1 1.00
  0.364300D+00  0.100000D+01
   p     5 1.00
  0.187100D+02  0.140310D-01
  0.413300D+01  0.868660D-01
  0.120000D+01  0.290216D+00
  0.382700D+00  0.501008D+00
  0.120900D+00  0.343406D+00
   p     1 1.00
  0.382700D+00  0.100000D+01
   p     1 1.00
  0.120900D+00  0.100000D+01
   d     1 1.00
  0.109700D+01  0.100000D+01
   d     1 1.00
  0.318000D+00  0.100000D+01
   f     1 1.00
  0.761000D+00  0.100000D+01
  
  3  0
   s    10 1.00
  0.823600D+04  0.531000D-03
  0.123500D+04  0.410800D-02
  0.280800D+03  0.210870D-01
  0.792700D+02  0.818530D-01
  0.255900D+02  0.234817D+00
  0.899700D+01  0.434401D+00
  0.331900D+01  0.346129D+00
  0.905900D+00  0.393780D-01
  0.364300D+00 -0.898300D-02
  0.128500D+00  0.238500D-02
   s    10 1.00
  0.823600D+04 -0.113000D-03
  0.123500D+04 -0.878000D-03
  0.280800D+03 -0.454000D-02
  0.792700D+02 -0.181330D-01
  0.255900D+02 -0.557600D-01
  0.899700D+01 -0.126895D+00
  0.331900D+01 -0.170352D+00
  0.905900D+00  0.140382D+00
  0.364300D+00  0.598684D+00
  0.128500D+00  0.395389D+00
   s     1 1.00
  0.905900D+00  0.100000D+01
   s     1 1.00
  0.364300D+00  0.100000D+01
   p     5 1.00
  0.187100D+02  0.140310D-01
  0.413300D+01  0.868660D-01
  0.120000D+01  0.290216D+00
  0.382700D+00  0.501008D+00
  0.120900D+00  0.343406D+00
   p     1 1.00
  0.382700D+00  0.100000D+01
   p     1 1.00
  0.120900D+00  0.100000D+01
   d     1 1.00
  0.109700D+01  0.100000D+01
   d     1 1.00
  0.318000D+00  0.100000D+01
   f     1 1.00
  0.761000D+00  0.100000D+01
  
  4  0
   s    10 1.00
  0.823600D+04  0.531000D-03
  0.123500D+04  0.410800D-02
  0.280800D+03  0.210870D-01
  0.792700D+02  0.818530D-01
  0.255900D+02  0.234817D+00
  0.899700D+01  0.434401D+00
  0.331900D+01  0.346129D+00
  0.905900D+00  0.393780D-01
  0.364300D+00 -0.898300D-02
  0.128500D+00  0.238500D-02
   s    10 1.00
  0.823600D+04 -0.113000D-03
  0.123500D+04 -0.878000D-03
  0.280800D+03 -0.454000D-02
  0.792700D+02 -0.181330D-01
  0.255900D+02 -0.557600D-01
  0.899700D+01 -0.126895D+00
  0.331900D+01 -0.170352D+00
  0.905900D+00  0.140382D+00
  0.364300D+00  0.598684D+00
  0.128500D+00  0.395389D+00
   s     1 1.00
  0.905900D+00  0.100000D+01
   s     1 1.00
  0.364300D+00  0.100000D+01
   p     5 1.00
  0.187100D+02  0.140310D-01
  0.413300D+01  0.868660D-01
  0.120000D+01  0.290216D+00
  0.382700D+00  0.501008D+00
  0.120900D+00  0.343406D+00
   p     1 1.00
  0.382700D+00  0.100000D+01
   p     1 1.00
  0.120900D+00  0.100000D+01
   d     1 1.00
  0.109700D+01  0.100000D+01
   d     1 1.00
  0.318000D+00  0.100000D+01
   f     1 1.00
  0.761000D+00  0.100000D+01
  
  5  0
   s    10 1.00
  0.823600D+04  0.531000D-03
  0.123500D+04  0.410800D-02
  0.280800D+03  0.210870D-01
  0.792700D+02  0.818530D-01
  0.255900D+02  0.234817D+00
  0.899700D+01  0.434401D+00
  0.331900D+01  0.346129D+00
  0.905900D+00  0.393780D-01
  0.364300D+00 -0.898300D-02
  0.128500D+00  0.238500D-02
   s    10 1.00
  0.823600D+04 -0.113000D-03
  0.123500D+04 -0.878000D-03
  0.280800D+03 -0.454000D-02
  0.792700D+02 -0.181330D-01
  0.255900D+02 -0.557600D-01
  0.899700D+01 -0.126895D+00
  0.331900D+01 -0.170352D+00
  0.905900D+00  0.140382D+00
  0.364300D+00  0.598684D+00
  0.128500D+00  0.395389D+00
   s     1 1.00
  0.905900D+00  0.100000D+01
   s     1 1.00
  0.364300D+00  0.100000D+01
   p     5 1.00
  0.187100D+02  0.140310D-01
  0.413300D+01  0.868660D-01
  0.120000D+01  0.290216D+00
  0.382700D+00  0.501008D+00
  0.120900D+00  0.343406D+00
   p     1 1.00
  0.382700D+00  0.100000D+01
   p     1 1.00
  0.120900D+00  0.100000D+01
   d     1 1.00
  0.109700D+01  0.100000D+01
   d     1 1.00
  0.318000D+00  0.100000D+01
   f     1 1.00
  0.761000D+00  0.100000D+01
  
  6  0
   s    10 1.00
  0.823600D+04  0.531000D-03
  0.123500D+04  0.410800D-02
  0.280800D+03  0.210870D-01
  0.792700D+02  0.818530D-01
  0.255900D+02  0.234817D+00
  0.899700D+01  0.434401D+00
  0.331900D+01  0.346129D+00
  0.905900D+00  0.393780D-01
  0.364300D+00 -0.898300D-02
  0.128500D+00  0.238500D-02
   s    10 1.00
  0.823600D+04 -0.113000D-03
  0.123500D+04 -0.878000D-03
  0.280800D+03 -0.454000D-02
  0.792700D+02 -0.181330D-01
  0.255900D+02 -0.557600D-01
  0.899700D+01 -0.126895D+00
  0.331900D+01 -0.170352D+00
  0.905900D+00  0.140382D+00
  0.364300D+00  0.598684D+00
  0.128500D+00  0.395389D+00
   s     1 1.00
  0.905900D+00  0.100000D+01
   s     1 1.00
  0.364300D+00  0.100000D+01
   p     5 1.00
  0.187100D+02  0.140310D-01
  0.413300D+01  0.868660D-01
  0.120000D+01  0.290216D+00
  0.382700D+00  0.501008D+00
  0.120900D+00  0.343406D+00
   p     1 1.00
  0.382700D+00  0.100000D+01
   p     1 1.00
  0.120900D+00  0.100000D+01
   d     1 1.00
  0.109700D+01  0.100000D+01
   d     1 1.00
  0.318000D+00  0.100000D+01
   f     1 1.00
  0.761000D+00  0.100000D+01
  
  7  0
   s    10 1.00
  0.823600D+04  0.531000D-03
  0.123500D+04  0.410800D-02
  0.280800D+03  0.210870D-01
  0.792700D+02  0.818530D-01
  0.255900D+02  0.234817D+00
  0.899700D+01  0.434401D+00
  0.331900D+01  0.346129D+00
  0.905900D+00  0.393780D-01
  0.364300D+00 -0.898300D-02
  0.128500D+00  0.238500D-02
   s    10 1.00
  0.823600D+04 -0.113000D-03
  0.123500D+04 -0.878000D-03
  0.280800D+03 -0.454000D-02
  0.792700D+02 -0.181330D-01
  0.255900D+02 -0.557600D-01
  0.899700D+01 -0.126895D+00
  0.331900D+01 -0.170352D+00
  0.905900D+00  0.140382D+00
  0.364300D+00  0.598684D+00
  0.128500D+00  0.395389D+00
   s     1 1.00
  0.905900D+00  0.100000D+01
   s     1 1.00
  0.364300D+00  0.100000D+01
   p     5 1.00
  0.187100D+02  0.140310D-01
  0.413300D+01  0.868660D-01
  0.120000D+01  0.290216D+00
  0.382700D+00  0.501008D+00
  0.120900D+00  0.343406D+00
   p     1 1.00
  0.382700D+00  0.100000D+01
   p     1 1.00
  0.120900D+00  0.100000D+01
   d     1 1.00
  0.109700D+01  0.100000D+01
   d     1 1.00
  0.318000D+00  0.100000D+01
   f     1 1.00
  0.761000D+00  0.100000D+01
  
  8  0
   s     4 1.00
  0.130100D+02  0.196850D-01
  0.196200D+01  0.137977D+00
  0.444600D+00  0.478148D+00
  0.122000D+00  0.501240D+00
   s     1 1.00
  0.122000D+00  0.100000D+01
   p     1 1.00
  0.727000D+00  0.100000D+01
  
  9  0
   s     4 1.00
  0.130100D+02  0.196850D-01
  0.196200D+01  0.137977D+00
  0.444600D+00  0.478148D+00
  0.122000D+00  0.501240D+00
   s     1 1.00
  0.122000D+00  0.100000D+01
   p     1 1.00
  0.727000D+00  0.100000D+01
  
 10  0
   s     4 1.00
  0.130100D+02  0.196850D-01
  0.196200D+01  0.137977D+00
  0.444600D+00  0.478148D+00
  0.122000D+00  0.501240D+00
   s     1 1.00
  0.122000D+00  0.100000D+01
   p     1 1.00
  0.727000D+00  0.100000D+01
  
 11  0
   s     4 1.00
  0.130100D+02  0.196850D-01
  0.196200D+01  0.137977D+00
  0.444600D+00  0.478148D+00
  0.122000D+00  0.501240D+00
   s     1 1.00
  0.122000D+00  0.100000D+01
   p     1 1.00
  0.727000D+00  0.100000D+01
  
 12  0
   s     4 1.00
  0.130100D+02  0.196850D-01
  0.196200D+01  0.137977D+00
  0.444600D+00  0.478148D+00
  0.122000D+00  0.501240D+00
   s     1 1.00
  0.122000D+00  0.100000D+01
   p     1 1.00
  0.727000D+00  0.100000D+01
  
 13  0
   s     4 1.00
  0.130100D+02  0.196850D-01
  0.196200D+01  0.137977D+00
  0.444600D+00  0.478148D+00
  0.122000D+00  0.501240D+00
   s     1 1.00
  0.122000D+00  0.100000D+01
   p     1 1.00
  0.727000D+00  0.100000D+01
  
 14  0
   s     4 1.00
  0.130100D+02  0.196850D-01
  0.196200D+01  0.137977D+00
  0.444600D+00  0.478148D+00
  0.122000D+00  0.501240D+00
   s     1 1.00
  0.122000D+00  0.100000D+01
   p     1 1.00
  0.727000D+00  0.100000D+01
  
[MO]
 Sym= __1_A__
 Ene=   1.00000000000000     
 Spin= Alpha
 Occup=    1.00000000000000     
                     1  1.028584320554299E-004
                     2  0.998353391350757     
                     3 -2.869603860171955E-003
                     4  1.840458176001179E-003
                     5  6.537005544128333E-003
                     6  2.802246440147733E-003
                     7  5.889063206019529E-003
                     8  5.567544441813519E-010
                     9 -7.119245742611247E-004
                    10 -7.410988856618998E-004
                    11 -9.383396505896270E-012
                    12 -2.479636445512370E-003
                    13 -1.952961709727561E-003
                    14 -4.499025138012366E-009
                    15 -3.170465629557763E-005
                    16  2.186720618501839E-010
                    17 -5.112723488552332E-013
                    18 -1.535553663829609E-004
                    19 -6.407124834680624E-005
                    20  9.302108656316216E-005
                    21  1.943476905845921E-010
                    22  2.816810625307393E-010
                    23 -2.160248122821734E-004
                    24  4.994938953614829E-004
                    25 -2.355686845831051E-010
                    26 -4.820228637382948E-006
                    27 -4.895922974771147E-005
                    28  1.526599907535113E-010
                    29 -2.006476206691444E-010
                    30  3.373781920007218E-005
                    31 -1.094896141832061E-004
                    32 -3.544887706774344E-004
                    33  1.421996096122360E-004
                    34  3.266480332772619E-004
                    35 -1.284683790034278E-004
                    36 -6.941109261577982E-005
                    37 -2.536733431774916E-003
                    38 -5.191510993686977E-009
                    39  3.733888164735292E-004
                    40  2.067072790316829E-004
                    41  2.644825383615800E-010
                    42 -2.153626600002928E-003
                    43  5.006749476163915E-003
                    44 -1.571319294460458E-009
                    45  7.556694170370399E-006
                    46  8.938881707841067E-012
                    47 -9.118466509722192E-011
                    48 -1.238738558518230E-004
                    49  1.256989410899785E-005
                    50 -1.950709063084153E-004
                    51  1.611496710368510E-012
                    52  2.152523709202571E-010
                    53  2.069787167974558E-005
                    54  7.827054708184649E-004
                    55 -9.852998519290266E-011
                    56 -3.080271299938291E-006
                    57 -7.572313069458542E-005
                    58 -9.551969734276877E-011
                    59 -3.451522099685993E-011
                    60  1.750314744946165E-005
                    61 -1.302872017274187E-004
                    62 -5.483056197268377E-004
                    63 -2.156536481993828E-003
                    64 -9.057564984866204E-005
                    65  2.248408396843262E-003
                    66 -4.517738047651895E-004
                    67  1.053936072212850E-004
                    68 -3.041218679169317E-009
                    69  3.838246835976763E-004
                    70  8.967854585956472E-004
                    71 -5.859195600775317E-011
                    72 -1.805837814716994E-003
                    73  6.862474501581348E-004
                    74  8.975075967773220E-010
                    75 -4.544299328493891E-005
                    76 -1.290761774947469E-010
                    77  2.500165914092601E-011
                    78 -6.000070267999250E-005
                    79 -2.388171473924428E-005
                    80 -1.347324162365668E-004
                    81  7.199787876888850E-011
                    82 -3.139853377707810E-011
                    83  3.015006341941708E-005
                    84  5.790436636382921E-006
                    85 -6.169111919956723E-012
                    86  9.656803269788647E-006
                    87 -4.655235046078597E-005
                    88 -1.045598083842245E-010
                    89 -8.284660945378251E-012
                    90 -2.911316421250072E-005
                    91 -1.558913429128971E-004
                    92 -1.762725611105972E-004
                    93 -6.373110907515606E-004
                    94  1.613082140027872E-004
                    95 -8.479956326234684E-005
                    96  1.972056730831762E-004
                    97  2.177837903258459E-005
                    98 -3.072707093425881E-009
                    99  3.447191887952304E-004
                   100  3.785489778888695E-004
                   101 -6.304412480861391E-011
                   102  6.174081207084527E-004
                   103 -1.760618794624466E-003
                   104  8.872240026360778E-010
                   105 -1.168706684912468E-005
                   106  1.247203842501024E-010
                   107  3.763820089473157E-011
                   108 -4.338952591795682E-005
                   109 -1.504541402719422E-005
                   110  8.500928511663206E-005
                   111 -8.809672865632230E-011
                   112 -7.227096713314897E-011
                   113 -1.630477643247480E-004
                   114  8.504829581354165E-005
                   115  4.367802649932325E-012
                   116 -1.930113563885758E-005
                   117 -2.252212937268278E-005
                   118 -1.010830077679869E-010
                   119  4.229659947573489E-012
                   120 -1.175548589446238E-005
                   121 -3.748899622074982E-005
                   122 -2.456845688285893E-004
                   123 -6.153762860429609E-004
                   124  1.727534392908069E-004
                   125  3.034386394595698E-004
                   126 -3.047149803139875E-005
                   127 -3.132022811373800E-004
                   128 -1.362598979990595E-009
                   129  2.311978634338028E-004
                   130  6.578832449771411E-004
                   131 -4.500948228027314E-011
                   132  4.342947884277629E-004
                   133  2.015767969475130E-003
                   134 -2.628639063355506E-011
                   135  1.446028255870018E-005
                   136 -2.986701557233998E-012
                   137  4.016069343136338E-010
                   138  4.711644130804208E-005
                   139 -1.511023648999175E-006
                   140  2.064585410650398E-004
                   141 -1.138093001692978E-012
                   142 -3.934918779388318E-011
                   143  4.007244118129182E-004
                   144  2.314352954961491E-004
                   145 -3.047525504834382E-011
                   146 -1.161457650417419E-005
                   147 -6.473532373593421E-005
                   148  3.893761756202086E-011
                   149  3.224321151710399E-011
                   150 -1.500712290529258E-005
                   151 -5.446822162094578E-005
                   152 -1.339835971284720E-004
                   153 -3.679852388253085E-004
                   154  5.471032770235590E-005
                   155  1.977088070110993E-004
                   156  4.678032277028593E-006
                   157 -8.790591304447830E-005
                   158 -1.437913205273483E-009
                   159  8.926346223359512E-006
                   160  4.786386894273028E-005
                   161 -1.162510940047607E-011
                   162  7.525436764247965E-004
                   163 -3.858854953112138E-004
                   164 -1.428649112538315E-012
                   165  1.591089220488002E-006
                   166 -2.005412304144832E-012
                   167  4.200333747421408E-010
                   168  2.151714044046594E-006
                   169  1.043730391823957E-005
                   170  1.040729474800523E-004
                   171 -3.073326218427114E-012
                   172 -7.813488106368049E-011
                   173  4.458917827869382E-005
                   174  3.283930940226501E-005
                   175 -2.706456858374925E-011
                   176  3.662540166871384E-006
                   177 -1.334783821147968E-005
                   178  3.963939139919402E-011
                   179 -3.389429354134409E-011
                   180 -2.370462455596899E-005
                   181 -2.852508416115239E-005
                   182 -1.390232504789268E-004
                   183 -4.076887636462307E-004
                   184  3.209977576566777E-005
                   185  2.079835392256842E-004
                   186 -4.665473338644634E-005
                   187 -6.192940191170117E-005
                   188 -4.286661174918870E-010
                   189  2.646963169467822E-004
                   190  1.208428671907548E-004
                   191 -1.013571303624104E-010
                   192  1.363882455700382E-003
                   193 -3.110958626739530E-004
                   194  4.559633594262025E-010
                   195  1.176496417174319E-006
                   196 -1.919545881708662E-012
                   197  7.060046977880301E-011
                   198 -3.732651144478590E-006
                   199  4.307997078146176E-006
                   200 -9.360703902250522E-006
                   201 -3.178878263061646E-012
                   202  8.907225480221218E-011
                   203 -6.983655306826362E-005
                   204 -2.053330573129317E-004
                   205 -6.583633038795629E-011
                   206 -9.790445886877330E-006
                   207 -4.022998618570307E-006
                   208 -4.365312395806268E-011
                   209  1.945838013818997E-012
                   210  8.208301030717555E-006
                   211 -4.501226585739731E-006
                   212 -4.175146200972661E-005
                   213  1.084596697907415E-004
                   214  2.170258963417618E-005
                   215  2.695408699543116E-005
                   216 -2.550221175102070E-011
                   217 -8.848365932867979E-004
                   218 -6.118362373398741E-004
                   219 -2.405406676272386E-004
                   220  5.564681343020553E-005
                   221 -2.684921052068231E-010
                   222 -2.115579094737033E-004
                   223 -6.222078125542039E-004
                   224  2.346180695539049E-005
                   225 -6.042593459747973E-005
                   226 -5.085356101562543E-011
                   227  6.261476454987042E-005
                   228 -6.544563213984839E-004
                   229 -4.371459389071553E-005
                   230 -1.379852958224229E-005
                   231 -5.665846182808949E-011
                   232  1.479076958689268E-005
                   233 -4.874570326654644E-004
                   234  1.269254718283009E-005
                   235 -4.069042095217440E-006
                   236 -6.713746814074315E-012
                   237  3.124360718176125E-006
                   238 -3.608632784621300E-004
                   239 -6.923859111582364E-006
                   240 -2.255402781220302E-006
                   241 -6.682749354815878E-012
                   242 -6.224487624786444E-005
                   243  9.099116507023320E-005
                   244 -1.261023556195346E-007
                   245  3.043811093649721E-005
                   246 -4.039028166341393E-011
 Sym= __2_A__
 Ene=   2.00000000000000     
 Spin= Alpha
 Occup=    1.00000000000000     
                     1  4.521379977004022E-005
                     2  3.099767693831741E-004
                     3 -3.419330550702361E-003
                     4 -1.085602002501068E-004
                     5 -1.393430305199585E-003
                     6  6.591052758741565E-004
                     7 -3.395551633812109E-003
                     8  2.896375799670911E-009
                     9  1.564677641182093E-005
                    10  1.032724741203451E-004
                    11 -1.605854934489692E-010
                    12  1.893591729331234E-005
                    13  2.824838942315751E-004
                    14  1.083190844260178E-010
                    15 -2.149148426606220E-005
                    16  1.778750273626584E-013
                    17 -1.460021136179555E-011
                    18  6.266946057656432E-005
                    19 -2.454598870830539E-005
                    20  1.311792708156445E-004
                    21  2.676969233358334E-011
                    22  3.102928155881331E-010
                    23 -7.023098623768644E-005
                    24  1.467978108214950E-004
                    25  1.944463403727866E-010
                    26  1.659925835720764E-005
                    27 -8.622728855204261E-005
                    28 -1.642981139242627E-010
                    29  2.019972340965011E-010
                    30  6.513573443102531E-005
                    31 -1.399793215043650E-004
                    32  -1.00081763605794     
                    33 -9.235177912313149E-003
                    34 -2.810629814246094E-003
                    35  8.128154720190402E-003
                    36  2.577253543742680E-004
                    37  3.941440146004949E-003
                    38  5.504715012134362E-009
                    39  1.828097479649333E-004
                    40 -2.751390606762570E-004
                    41 -2.213919332447422E-009
                    42  1.349348197814518E-004
                    43 -4.277983452340426E-003
                    44 -4.938127150604925E-010
                    45  5.215748507938413E-004
                    46  1.209367438553988E-011
                    47  4.502802024818174E-011
                    48  2.150689519408402E-004
                    49 -3.481626710836141E-005
                    50 -5.537532827319220E-004
                    51 -9.461840666944469E-011
                    52  3.826746342232022E-010
                    53  6.607032939350134E-004
                    54  4.528542302177884E-004
                    55 -7.682189639590587E-011
                    56 -1.713146941371033E-005
                    57 -1.031355367496891E-004
                    58  9.156771804994051E-011
                    59  6.356324565567161E-011
                    60  2.434745839268605E-005
                    61 -3.797637135209425E-004
                    62 -1.359063654615364E-002
                    63  2.169811368420834E-003
                    64  2.211244127324834E-004
                    65 -2.677392380863379E-003
                    66  7.210907970049266E-005
                    67 -2.648891841383369E-004
                    68  1.540504965489408E-009
                    69 -4.926578079157786E-004
                    70 -1.689698456104997E-004
                    71 -1.280341925610818E-010
                    72  2.121904373899792E-003
                    73 -2.528822439747282E-004
                    74 -6.272588143428346E-010
                    75 -3.616635328952221E-005
                    76  6.010826900413338E-011
                    77  1.202397313348424E-012
                    78  2.012092288654818E-005
                    79 -3.544696676725106E-006
                    80  4.251425815712547E-004
                    81 -7.394589625826230E-011
                    82 -2.623829585270712E-010
                    83  6.810237301319404E-004
                    84  2.506121942835010E-004
                    85  1.705746617241287E-011
                    86 -3.043320179728637E-005
                    87  5.844658718138891E-005
                    88  6.463529669469468E-011
                    89 -6.149828149996123E-011
                    90 -5.251204903747454E-005
                    91 -1.491835935499402E-004
                    92 -1.713971695456094E-002
                    93  2.250557268857019E-003
                    94  2.944709991496747E-004
                    95 -3.199552856641120E-003
                    96 -4.053953577523693E-004
                    97 -4.186705886240225E-004
                    98  1.612910690014620E-009
                    99  9.668630713736643E-004
                   100  1.634114720791461E-005
                   101 -1.514454394068847E-010
                   102 -1.726388903113103E-003
                   103  3.976816827880372E-005
                   104 -5.957116027657214E-010
                   105 -2.284543605500025E-005
                   106 -5.730663740906281E-011
                   107  1.336664657370457E-012
                   108  1.825388743813759E-005
                   109 -1.124156762813708E-006
                   110  4.160661670569058E-004
                   111  3.657477589001311E-011
                   112 -3.549373278431829E-010
                   113  3.909973786999984E-004
                   114 -2.307157511457579E-004
                   115  2.255644889346419E-011
                   116  3.246294396587604E-005
                   117  7.457003464806645E-005
                   118  6.869414386263110E-011
                   119  9.110955004646335E-011
                   120  3.475623867910827E-006
                   121 -1.368073344684154E-004
                   122 -5.446632014014177E-005
                   123  6.035836744907757E-004
                   124 -2.298423233464951E-004
                   125  1.252472073637712E-004
                   126 -2.030470824435263E-006
                   127  5.093890007660689E-004
                   128  3.359634538849635E-010
                   129  8.270339853483886E-005
                   130 -6.318144873721505E-004
                   131  7.003342925261707E-010
                   132 -3.639168350414868E-004
                   133 -9.618883285221567E-004
                   134  8.267005710737892E-010
                   135 -1.793507648613942E-005
                   136 -5.190232966632041E-011
                   137  1.323194996923854E-011
                   138 -2.923789810251956E-007
                   139 -4.679135676504994E-005
                   140 -1.279691348445503E-004
                   141  7.853615759218823E-010
                   142 -1.964143778358027E-010
                   143 -2.606875723606600E-004
                   144  9.447348339855099E-005
                   145  1.469262830601375E-010
                   146 -9.685171939280801E-006
                   147  3.619146202093436E-005
                   148  9.279648695927610E-011
                   149  9.416115082885017E-011
                   150  4.496442505695793E-005
                   151 -3.959053529595958E-005
                   152 -3.694503290420222E-004
                   153  5.549849095982751E-004
                   154 -2.284022990466308E-004
                   155  3.297628044573660E-005
                   156  5.316097886022464E-005
                   157  5.752506224362603E-004
                   158  4.096423896775344E-010
                   159 -1.409602404398556E-004
                   160 -5.524190458219964E-004