[Molden Format]
[Atoms] AU
  N     1    7     0.0088599900   -4.2725018000    0.0000000100        
  C     2    6     0.1143943300   -1.7339816800    0.0000000000        
  C     3    6    -2.2257662100   -0.3737079800    0.0000000100        
  C     4    6     2.4018065900   -0.2788272700   -0.0000000300        
  C     5    6    -2.2439812500    2.2078724700   -0.0000000100        
  C     6    6     2.3342884000    2.2991455900    0.0000000000        
  C     7    6     0.0231153400    3.5733432000    0.0000000000        
  H     8    1    -4.0647629800   -7.3447418300    0.0000000100        
  H     9    1     1.8188095500   -4.9964270100    0.0000000200        
  H    10    1    -3.9476673300   -1.4388691000    0.0000000100        
  H    11    1     4.1775953000   -1.2622614700   -0.0000000300        
  H    12    1    -4.0091743300    3.2089730500   -0.0000000300        
  H    13    1     4.0617364800    3.3642852600    0.0000000100        
  H    14    1    -0.0164860800    5.6010230100    0.0000000100        
[5D]
[7F]
[GTO]
  1  0
   s    12 1.00
  0.114200D+05  0.172695D-04
  0.171200D+04  0.134411D-03
  0.389300D+03  0.694561D-03
  0.110000D+03  0.278531D-02
  0.355700D+02  0.863457D-02
  0.125400D+02  0.199805D-01
  0.464400D+01  0.262908D-01
  0.129300D+01 -0.243845D-01
  0.511800D+00 -0.924934D-01
  0.178700D+00 -0.339683D+00
  0.246240D-01  0.345111D+00
  0.112530D-01  0.752750D+00
   s    10 1.00
  0.114200D+05  0.523000D-03
  0.171200D+04  0.404500D-02
  0.389300D+03  0.207750D-01
  0.110000D+03  0.807269D-01
  0.355700D+02  0.233074D+00
  0.125400D+02  0.433501D+00
  0.464400D+01  0.347472D+00
  0.129300D+01  0.412620D-01
  0.511800D+00 -0.850799D-02
  0.178700D+00  0.238400D-02
   s    10 1.00
  0.114200D+05 -0.115000D-03
  0.171200D+04 -0.895000D-03
  0.389300D+03 -0.462400D-02
  0.110000D+03 -0.185280D-01
  0.355700D+02 -0.573390D-01
  0.125400D+02 -0.132076D+00
  0.464400D+01 -0.172510D+00
  0.129300D+01  0.151814D+00
  0.511800D+00  0.599944D+00
  0.178700D+00  0.387462D+00
   s     1 1.00
  0.129300D+01  0.100000D+01
   s     1 1.00
  0.178700D+00  0.100000D+01
   p     5 1.00
  0.266300D+02  0.146700D-01
  0.594800D+01  0.917640D-01
  0.174200D+01  0.298683D+00
  0.555000D+00  0.498487D+00
  0.172500D+00  0.337023D+00
   p     1 1.00
  0.174200D+01  0.100000D+01
   p     1 1.00
  0.555000D+00  0.100000D+01
   d     1 1.00
  0.165400D+01  0.100000D+01
   d     1 1.00
  0.469000D+00  0.100000D+01
   f     1 1.00
  0.109300D+01  0.100000D+01
  
  2  0
   s    10 1.00
  0.823600D+04  0.531000D-03
  0.123500D+04  0.410800D-02
  0.280800D+03  0.210870D-01
  0.792700D+02  0.818530D-01
  0.255900D+02  0.234817D+00
  0.899700D+01  0.434401D+00
  0.331900D+01  0.346129D+00
  0.905900D+00  0.393780D-01
  0.364300D+00 -0.898300D-02
  0.128500D+00  0.238500D-02
   s    10 1.00
  0.823600D+04 -0.113000D-03
  0.123500D+04 -0.878000D-03
  0.280800D+03 -0.454000D-02
  0.792700D+02 -0.181330D-01
  0.255900D+02 -0.557600D-01
  0.899700D+01 -0.126895D+00
  0.331900D+01 -0.170352D+00
  0.905900D+00  0.140382D+00
  0.364300D+00  0.598684D+00
  0.128500D+00  0.395389D+00
   s     1 1.00
  0.905900D+00  0.100000D+01
   s     1 1.00
  0.364300D+00  0.100000D+01
   p     5 1.00
  0.187100D+02  0.140310D-01
  0.413300D+01  0.868660D-01
  0.120000D+01  0.290216D+00
  0.382700D+00  0.501008D+00
  0.120900D+00  0.343406D+00
   p     1 1.00
  0.382700D+00  0.100000D+01
   p     1 1.00
  0.120900D+00  0.100000D+01
   d     1 1.00
  0.109700D+01  0.100000D+01
   d     1 1.00
  0.318000D+00  0.100000D+01
   f     1 1.00
  0.761000D+00  0.100000D+01
  
  3  0
   s    10 1.00
  0.823600D+04  0.531000D-03
  0.123500D+04  0.410800D-02
  0.280800D+03  0.210870D-01
  0.792700D+02  0.818530D-01
  0.255900D+02  0.234817D+00
  0.899700D+01  0.434401D+00
  0.331900D+01  0.346129D+00
  0.905900D+00  0.393780D-01
  0.364300D+00 -0.898300D-02
  0.128500D+00  0.238500D-02
   s    10 1.00
  0.823600D+04 -0.113000D-03
  0.123500D+04 -0.878000D-03
  0.280800D+03 -0.454000D-02
  0.792700D+02 -0.181330D-01
  0.255900D+02 -0.557600D-01
  0.899700D+01 -0.126895D+00
  0.331900D+01 -0.170352D+00
  0.905900D+00  0.140382D+00
  0.364300D+00  0.598684D+00
  0.128500D+00  0.395389D+00
   s     1 1.00
  0.905900D+00  0.100000D+01
   s     1 1.00
  0.364300D+00  0.100000D+01
   p     5 1.00
  0.187100D+02  0.140310D-01
  0.413300D+01  0.868660D-01
  0.120000D+01  0.290216D+00
  0.382700D+00  0.501008D+00
  0.120900D+00  0.343406D+00
   p     1 1.00
  0.382700D+00  0.100000D+01
   p     1 1.00
  0.120900D+00  0.100000D+01
   d     1 1.00
  0.109700D+01  0.100000D+01
   d     1 1.00
  0.318000D+00  0.100000D+01
   f     1 1.00
  0.761000D+00  0.100000D+01
  
  4  0
   s    10 1.00
  0.823600D+04  0.531000D-03
  0.123500D+04  0.410800D-02
  0.280800D+03  0.210870D-01
  0.792700D+02  0.818530D-01
  0.255900D+02  0.234817D+00
  0.899700D+01  0.434401D+00
  0.331900D+01  0.346129D+00
  0.905900D+00  0.393780D-01
  0.364300D+00 -0.898300D-02
  0.128500D+00  0.238500D-02
   s    10 1.00
  0.823600D+04 -0.113000D-03
  0.123500D+04 -0.878000D-03
  0.280800D+03 -0.454000D-02
  0.792700D+02 -0.181330D-01
  0.255900D+02 -0.557600D-01
  0.899700D+01 -0.126895D+00
  0.331900D+01 -0.170352D+00
  0.905900D+00  0.140382D+00
  0.364300D+00  0.598684D+00
  0.128500D+00  0.395389D+00
   s     1 1.00
  0.905900D+00  0.100000D+01
   s     1 1.00
  0.364300D+00  0.100000D+01
   p     5 1.00
  0.187100D+02  0.140310D-01
  0.413300D+01  0.868660D-01
  0.120000D+01  0.290216D+00
  0.382700D+00  0.501008D+00
  0.120900D+00  0.343406D+00
   p     1 1.00
  0.382700D+00  0.100000D+01
   p     1 1.00
  0.120900D+00  0.100000D+01
   d     1 1.00
  0.109700D+01  0.100000D+01
   d     1 1.00
  0.318000D+00  0.100000D+01
   f     1 1.00
  0.761000D+00  0.100000D+01
  
  5  0
   s    10 1.00
  0.823600D+04  0.531000D-03
  0.123500D+04  0.410800D-02
  0.280800D+03  0.210870D-01
  0.792700D+02  0.818530D-01
  0.255900D+02  0.234817D+00
  0.899700D+01  0.434401D+00
  0.331900D+01  0.346129D+00
  0.905900D+00  0.393780D-01
  0.364300D+00 -0.898300D-02
  0.128500D+00  0.238500D-02
   s    10 1.00
  0.823600D+04 -0.113000D-03
  0.123500D+04 -0.878000D-03
  0.280800D+03 -0.454000D-02
  0.792700D+02 -0.181330D-01
  0.255900D+02 -0.557600D-01
  0.899700D+01 -0.126895D+00
  0.331900D+01 -0.170352D+00
  0.905900D+00  0.140382D+00
  0.364300D+00  0.598684D+00
  0.128500D+00  0.395389D+00
   s     1 1.00
  0.905900D+00  0.100000D+01
   s     1 1.00
  0.364300D+00  0.100000D+01
   p     5 1.00
  0.187100D+02  0.140310D-01
  0.413300D+01  0.868660D-01
  0.120000D+01  0.290216D+00
  0.382700D+00  0.501008D+00
  0.120900D+00  0.343406D+00
   p     1 1.00
  0.382700D+00  0.100000D+01
   p     1 1.00
  0.120900D+00  0.100000D+01
   d     1 1.00
  0.109700D+01  0.100000D+01
   d     1 1.00
  0.318000D+00  0.100000D+01
   f     1 1.00
  0.761000D+00  0.100000D+01
  
  6  0
   s    10 1.00
  0.823600D+04  0.531000D-03
  0.123500D+04  0.410800D-02
  0.280800D+03  0.210870D-01
  0.792700D+02  0.818530D-01
  0.255900D+02  0.234817D+00
  0.899700D+01  0.434401D+00
  0.331900D+01  0.346129D+00
  0.905900D+00  0.393780D-01
  0.364300D+00 -0.898300D-02
  0.128500D+00  0.238500D-02
   s    10 1.00
  0.823600D+04 -0.113000D-03
  0.123500D+04 -0.878000D-03
  0.280800D+03 -0.454000D-02
  0.792700D+02 -0.181330D-01
  0.255900D+02 -0.557600D-01
  0.899700D+01 -0.126895D+00
  0.331900D+01 -0.170352D+00
  0.905900D+00  0.140382D+00
  0.364300D+00  0.598684D+00
  0.128500D+00  0.395389D+00
   s     1 1.00
  0.905900D+00  0.100000D+01
   s     1 1.00
  0.364300D+00  0.100000D+01
   p     5 1.00
  0.187100D+02  0.140310D-01
  0.413300D+01  0.868660D-01
  0.120000D+01  0.290216D+00
  0.382700D+00  0.501008D+00
  0.120900D+00  0.343406D+00
   p     1 1.00
  0.382700D+00  0.100000D+01
   p     1 1.00
  0.120900D+00  0.100000D+01
   d     1 1.00
  0.109700D+01  0.100000D+01
   d     1 1.00
  0.318000D+00  0.100000D+01
   f     1 1.00
  0.761000D+00  0.100000D+01
  
  7  0
   s    10 1.00
  0.823600D+04  0.531000D-03
  0.123500D+04  0.410800D-02
  0.280800D+03  0.210870D-01
  0.792700D+02  0.818530D-01
  0.255900D+02  0.234817D+00
  0.899700D+01  0.434401D+00
  0.331900D+01  0.346129D+00
  0.905900D+00  0.393780D-01
  0.364300D+00 -0.898300D-02
  0.128500D+00  0.238500D-02
   s    10 1.00
  0.823600D+04 -0.113000D-03
  0.123500D+04 -0.878000D-03
  0.280800D+03 -0.454000D-02
  0.792700D+02 -0.181330D-01
  0.255900D+02 -0.557600D-01
  0.899700D+01 -0.126895D+00
  0.331900D+01 -0.170352D+00
  0.905900D+00  0.140382D+00
  0.364300D+00  0.598684D+00
  0.128500D+00  0.395389D+00
   s     1 1.00
  0.905900D+00  0.100000D+01
   s     1 1.00
  0.364300D+00  0.100000D+01
   p     5 1.00
  0.187100D+02  0.140310D-01
  0.413300D+01  0.868660D-01
  0.120000D+01  0.290216D+00
  0.382700D+00  0.501008D+00
  0.120900D+00  0.343406D+00
   p     1 1.00
  0.382700D+00  0.100000D+01
   p     1 1.00
  0.120900D+00  0.100000D+01
   d     1 1.00
  0.109700D+01  0.100000D+01
   d     1 1.00
  0.318000D+00  0.100000D+01
   f     1 1.00
  0.761000D+00  0.100000D+01
  
  8  0
   s     4 1.00
  0.130100D+02  0.196850D-01
  0.196200D+01  0.137977D+00
  0.444600D+00  0.478148D+00
  0.122000D+00  0.501240D+00
   s     1 1.00
  0.122000D+00  0.100000D+01
   p     1 1.00
  0.727000D+00  0.100000D+01
  
  9  0
   s     4 1.00
  0.130100D+02  0.196850D-01
  0.196200D+01  0.137977D+00
  0.444600D+00  0.478148D+00
  0.122000D+00  0.501240D+00
   s     1 1.00
  0.122000D+00  0.100000D+01
   p     1 1.00
  0.727000D+00  0.100000D+01
  
 10  0
   s     4 1.00
  0.130100D+02  0.196850D-01
  0.196200D+01  0.137977D+00
  0.444600D+00  0.478148D+00
  0.122000D+00  0.501240D+00
   s     1 1.00
  0.122000D+00  0.100000D+01
   p     1 1.00
  0.727000D+00  0.100000D+01
  
 11  0
   s     4 1.00
  0.130100D+02  0.196850D-01
  0.196200D+01  0.137977D+00
  0.444600D+00  0.478148D+00
  0.122000D+00  0.501240D+00
   s     1 1.00
  0.122000D+00  0.100000D+01
   p     1 1.00
  0.727000D+00  0.100000D+01
  
 12  0
   s     4 1.00
  0.130100D+02  0.196850D-01
  0.196200D+01  0.137977D+00
  0.444600D+00  0.478148D+00
  0.122000D+00  0.501240D+00
   s     1 1.00
  0.122000D+00  0.100000D+01
   p     1 1.00
  0.727000D+00  0.100000D+01
  
 13  0
   s     4 1.00
  0.130100D+02  0.196850D-01
  0.196200D+01  0.137977D+00
  0.444600D+00  0.478148D+00
  0.122000D+00  0.501240D+00
   s     1 1.00
  0.122000D+00  0.100000D+01
   p     1 1.00
  0.727000D+00  0.100000D+01
  
 14  0
   s     4 1.00
  0.130100D+02  0.196850D-01
  0.196200D+01  0.137977D+00
  0.444600D+00  0.478148D+00
  0.122000D+00  0.501240D+00
   s     1 1.00
  0.122000D+00  0.100000D+01
   p     1 1.00
  0.727000D+00  0.100000D+01
  
[MO]
 Sym= __1_a__
 Ene=  0.000000000000000E+000
 Spin= Alpha
 Occup=    2.00000000000000     
                     1  1.028584320392400E-004
                     2  0.998353391350442     
                     3 -2.869603865601670E-003
                     4  1.840458176523150E-003
                     5  6.537005544419630E-003
                     6  2.802246438398560E-003
                     7  5.889063203840060E-003
                     8  5.579881920489890E-010
                     9 -7.119245739526970E-004
                    10 -7.410988850293240E-004
                    11 -1.061625356316160E-011
                    12 -2.479636444635120E-003
                    13 -1.952961709663510E-003
                    14 -4.526378291100680E-009
                    15 -3.170465623160134E-005
                    16  2.197766986136580E-010
                    17 -6.151852741853630E-013
                    18 -1.535553663976782E-004
                    19 -6.407124831716290E-005
                    20  9.302108675269361E-005
                    21  1.959778023663270E-010
                    22  2.852502018177730E-010
                    23 -2.160248118869100E-004
                    24  4.994938951200960E-004
                    25 -2.351994451440651E-010
                    26 -4.820228622775038E-006
                    27 -4.895922967588300E-005
                    28  1.525782650992870E-010
                    29 -2.004928017325920E-010
                    30  3.373781917659767E-005
                    31 -1.094896140454472E-004
                    32 -3.544887626945620E-004
                    33  1.421996342730920E-004
                    34  3.266480320219580E-004
                    35 -1.284683977311340E-004
                    36 -6.941109109852691E-005
                    37 -2.536733429367560E-003
                    38 -5.226964931991520E-009
                    39  3.733888160841150E-004
                    40  2.067072772336280E-004
                    41  2.646031633371750E-010
                    42 -2.153626599164250E-003
                    43  5.006749479567370E-003
                    44 -1.580563907783600E-009
                    45  7.556694234909857E-006
                    46  9.048152588768140E-012
                    47 -9.156566664256010E-011
                    48 -1.238738558507392E-004
                    49  1.256989416028510E-005
                    50 -1.950709061181948E-004
                    51  1.172004359389350E-012
                    52  2.189951908052620E-010
                    53  2.069787055517340E-005
                    54  7.827054704626970E-004
                    55 -9.972631420463255E-011
                    56 -3.080271305517886E-006
                    57 -7.572313058952003E-005
                    58 -9.494680473023640E-011
                    59 -3.459539861703990E-011
                    60  1.750314743782288E-005
                    61 -1.302872017542833E-004
                    62 -5.483056261858110E-004
                    63 -2.156536502901690E-003
                    64 -9.057564904338169E-005
                    65  2.248408413097520E-003
                    66 -4.517738051913240E-004
                    67  1.053936074179030E-004
                    68 -3.060995934292290E-009
                    69  3.838246840596840E-004
                    70  8.967854587857539E-004
                    71 -5.927728109544490E-011
                    72 -1.805837818612540E-003
                    73  6.862474470032780E-004
                    74  9.022569435729010E-010
                    75 -4.544299337696305E-005
                    76 -1.298932523121250E-010
                    77  2.510596763667010E-011
                    78 -6.000070265985860E-005
                    79 -2.388171471812460E-005
                    80 -1.347324164750256E-004
                    81  7.187101818343889E-011
                    82 -3.132512996443340E-011
                    83  3.015006295458440E-005
                    84  5.790435947969160E-006
                    85 -6.569968194802245E-012
                    86  9.656803234173179E-006
                    87 -4.655235047898916E-005
                    88 -1.047709586898248E-010
                    89 -8.196414737329830E-012
                    90 -2.911316421461087E-005
                    91 -1.558913429465940E-004
                    92 -1.762725678308700E-004
                    93 -6.373111115122260E-004
                    94  1.613082146671700E-004
                    95 -8.479954574860940E-005
                    96  1.972056723126680E-004
                    97  2.177837759556230E-005
                    98 -3.093719390399570E-009
                    99  3.447191879603120E-004
                   100  3.785489782828490E-004
                   101 -6.377239503960739E-011
                   102  6.174081254486570E-004
                   103 -1.760618795837060E-003
                   104  8.936133144545410E-010
                   105 -1.168706697717120E-005
                   106  1.255591571027160E-010
                   107  3.779391906761130E-011
                   108 -4.338952588118180E-005
                   109 -1.504541396450820E-005
                   110  8.500928473333550E-005
                   111 -8.824322622590099E-011
                   112 -7.260069503321460E-011
                   113 -1.630477646657594E-004
                   114  8.504829654786050E-005
                   115  4.007060806978221E-012
                   116 -1.930113558071428E-005
                   117 -2.252212937894958E-005
                   118 -1.012377334747930E-010
                   119  4.207607381710170E-012
                   120 -1.175548591407557E-005
                   121 -3.748899633015173E-005
                   122 -2.456845625258790E-004
                   123 -6.153762657242440E-004
                   124  1.727534385740820E-004
                   125  3.034386232735640E-004
                   126 -3.047149780639670E-005
                   127 -3.132022811672970E-004
                   128 -1.370669001743170E-009
                   129  2.311978626857080E-004
                   130  6.578832452343500E-004
                   131 -4.530445210824220E-011
                   132  4.342947923826050E-004
                   133  2.015767966366830E-003
                   134 -2.586528193323030E-011
                   135  1.446028264693944E-005
                   136 -3.066688874867570E-012
                   137  4.018939925009650E-010
                   138  4.711644130022680E-005
                   139 -1.511023667477810E-006
                   140  2.064585413838512E-004
                   141 -1.278423625536230E-012
                   142 -3.830379360852360E-011
                   143  4.007244120776100E-004
                   144  2.314352948153490E-004
                   145 -3.064356679948373E-011
                   146 -1.161457645448437E-005
                   147 -6.473532373961680E-005
                   148  3.901692179939980E-011
                   149  3.238392611072620E-011
                   150 -1.500712289370121E-005
                   151 -5.446822168847102E-005
                   152 -1.339835909701590E-004
                   153 -3.679852194298200E-004
                   154  5.471032706457290E-005
                   155  1.977087911495370E-004
                   156  4.678032286240130E-006
                   157 -8.790591229711550E-005
                   158 -1.447710601833110E-009
                   159  8.926346840513189E-006
                   160  4.786386935745870E-005
                   161 -1.152962631047530E-011
                   162  7.525436720325370E-004
                   163 -3.858854973313140E-004
                   164 -2.663462388967720E-012
                   165  1.591089318187754E-006
                   166 -1.966695326028790E-012
                   167  4.203265174310760E-010
                   168  2.151714077154380E-006
                   169  1.043730395863740E-005
                   170  1.040729478842198E-004
                   171 -2.943069991284660E-012
                   172 -7.718995223713081E-011
                   173  4.458917864769520E-005
                   174  3.283931002439640E-005
                   175 -2.725077822450511E-011
                   176  3.662540117176549E-006
                   177 -1.334783824671085E-005
                   178  3.971255644435520E-011
                   179 -3.401849486889260E-011
                   180 -2.370462455802416E-005
                   181 -2.852508425194297E-005
                   182 -1.390232564271910E-004
                   183 -4.076887827969940E-004
                   184  3.209977637021140E-005
                   185  2.079835546203590E-004
                   186 -4.665473340028660E-005
                   187 -6.192940179304610E-005
                   188 -4.310909210189930E-010
                   189  2.646963168897540E-004
                   190  1.208428663899770E-004
                   191 -1.018539402001510E-010
                   192  1.363882454875700E-003
                   193 -3.110958583060730E-004
                   194  4.591929487489890E-010
                   195  1.176496322184781E-006
                   196 -1.954826507857720E-012
                   197  7.083416623771570E-011
                   198 -3.732651112547160E-006
                   199  4.307997080318870E-006
                   200 -9.360704293651638E-006
                   201 -3.078066488832540E-012
                   202  8.911513426691580E-011
                   203 -6.983655238513320E-005
                   204 -2.053330571913620E-004
                   205 -6.595244639064744E-011
                   206 -9.790445885796090E-006
                   207 -4.022998561349211E-006
                   208 -4.371658465407160E-011
                   209  1.923873660996130E-012
                   210  8.208301016456088E-006
                   211 -4.501226675829602E-006
                   212 -4.175146181843760E-005
                   213  1.084596697386950E-004
                   214  2.170258961053340E-005
                   215  2.695408698671750E-005
                   216 -2.567989236983420E-011
                   217 -8.848365950797640E-004
                   218 -6.118362361889840E-004
                   219 -2.405406674156600E-004
                   220  5.564681335906720E-005
                   221 -2.701590444056580E-010
                   222 -2.115579090268720E-004
                   223 -6.222078142496650E-004
                   224  2.346180694137210E-005
                   225 -6.042593456854840E-005
                   226 -5.125170643583530E-011
                   227  6.261476483477470E-005
                   228 -6.544563231358910E-004
                   229 -4.371459390382270E-005
                   230 -1.379852961333970E-005
                   231 -5.720649155632450E-011
                   232  1.479076943711390E-005
                   233 -4.874570308936500E-004
                   234  1.269254718216330E-005
                   235 -4.069042094846400E-006
                   236 -6.857956222834870E-012
                   237  3.124361137423160E-006
                   238 -3.608632768986390E-004
                   239 -6.923859136290150E-006
                   240 -2.255402788972300E-006
                   241 -6.771757230524120E-012
                   242 -6.224487630425840E-005
                   243  9.099116365011830E-005
                   244 -1.261023535016830E-007
                   245  3.043811094887200E-005
                   246 -4.039015302497300E-011
 Sym= __2_a__
 Ene=  0.000000000000000E+000
 Spin= Alpha
 Occup=    2.00000000000000     
                     1  4.521379978291910E-005
                     2  3.099767693213590E-004
                     3 -3.419330548839980E-003
                     4 -1.085602002421000E-004
                     5 -1.393430305457610E-003
                     6  6.591052759684570E-004
                     7 -3.395551634135200E-003
                     8  2.915435993944260E-009
                     9  1.564677644448690E-005
                    10  1.032724741701930E-004
                    11 -1.614200658216040E-010
                    12  1.893591730795100E-005
                    13  2.824838942441680E-004
                    14  1.082847130999440E-010
                    15 -2.149148427612105E-005
                    16  2.024016768073320E-013
                    17 -1.461180928908690E-011
                    18  6.266946058079820E-005
                    19 -2.454598871408050E-005
                    20  1.311792708126301E-004
                    21  2.690966023296910E-011
                    22  3.109930002405920E-010
                    23 -7.023098626095280E-005
                    24  1.467978108666170E-004
                    25  1.946216627589212E-010
                    26  1.659925835557344E-005
                    27 -8.622728855834914E-005
                    28 -1.644097512177862E-010
                    29  2.019418034365430E-010
                    30  6.513573443615113E-005
                    31 -1.399793215300467E-004
                    32  -1.00081763605849     
                    33 -9.235177911317630E-003
                    34 -2.810629814073380E-003
                    35  8.128154720071170E-003
                    36  2.577253537115080E-004
                    37  3.941440146353830E-003
                    38  5.540944429522000E-009
                    39  1.828097487867410E-004
                    40 -2.751390611918430E-004
                    41 -2.228204277456430E-009
                    42  1.349348199346350E-004
                    43 -4.277983452562480E-003
                    44 -5.002306474365170E-010
                    45  5.215748507898242E-004
                    46  1.242538680997150E-011
                    47  4.518152603066010E-011
                    48  2.150689519194840E-004
                    49 -3.481626710185470E-005
                    50 -5.537532827700961E-004
                    51 -9.475882687620600E-011
                    52  3.825089278321240E-010
                    53  6.607032938992680E-004
                    54  4.528542305193270E-004
                    55 -7.710908591463364E-011
                    56 -1.713146943152867E-005
                    57 -1.031355367417749E-004
                    58  9.151617362425480E-011
                    59  6.380874890547030E-011
                    60  2.434745839159640E-005
                    61 -3.797637135146865E-004
                    62 -1.359063652952260E-002
                    63  2.169811368815840E-003
                    64  2.211244127093070E-004
                    65 -2.677392380875010E-003
                    66  7.210907981720840E-005
                    67 -2.648891844683020E-004
                    68  1.548354887246190E-009
                    69 -4.926578076175980E-004
                    70 -1.689698457208230E-004
                    71 -1.272097868663160E-010
                    72  2.121904373930040E-003
                    73 -2.528822437475250E-004
                    74 -6.275893543413010E-010
                    75 -3.616635331827709E-005
                    76  6.032820390800730E-011
                    77  1.132678221219360E-012
                    78  2.012092290247800E-005
                    79 -3.544696709288940E-006
                    80  4.251425815536772E-004
                    81 -7.256485710786050E-011
                    82 -2.629674054306730E-010
                    83  6.810237302839480E-004
                    84  2.506121942814620E-004
                    85  1.740240914729726E-011
                    86 -3.043320180392562E-005
                    87  5.844658718566927E-005
                    88  6.482982678883361E-011
                    89 -6.175524723766649E-011
                    90 -5.251204902963979E-005
                    91 -1.491835935460164E-004
                    92 -1.713971694483500E-002
                    93  2.250557269304950E-003
                    94  2.944709991809480E-004
                    95 -3.199552857118030E-003
                    96 -4.053953580482930E-004
                    97 -4.186705890614250E-004
                    98  1.622525493188570E-009
                    99  9.668630714937330E-004
                   100  1.634114739040290E-005
                   101 -1.505244829293540E-010
                   102 -1.726388903002820E-003
                   103  3.976816846877440E-005
                   104 -5.960352203936060E-010
                   105 -2.284543605521444E-005
                   106 -5.756880655835590E-011
                   107  1.243530480081740E-012
                   108  1.825388744497044E-005
                   109 -1.124156747068130E-006
                   110  4.160661670671242E-004
                   111  3.516270230733410E-011
                   112 -3.556076599174840E-010
                   113  3.909973786753180E-004
                   114 -2.307157512796450E-004
                   115  2.295658359898117E-011
                   116  3.246294396825980E-005
                   117  7.457003464499697E-005
                   118  6.886378523758420E-011
                   119  9.144544832577359E-011
                   120  3.475623875505092E-006
                   121 -1.368073344677072E-004
                   122 -5.446631848923400E-005
                   123  6.035836739492510E-004
                   124 -2.298423233263170E-004
                   125  1.252472077736990E-004
                   126 -2.030470805275500E-006
                   127  5.093890009923060E-004
                   128  3.385356689578770E-010
                   129  8.270339848605641E-005
                   130 -6.318144874415780E-004
                   131  7.004062504359830E-010
                   132 -3.639168351480940E-004
                   133 -9.618883283636841E-004
                   134  8.260069050648560E-010
                   135 -1.793507648687696E-005
                   136 -5.183298020515870E-011
                   137  1.307928357873760E-011
                   138 -2.923789748476220E-007
                   139 -4.679135676797670E-005
                   140 -1.279691348407709E-004
                   141  7.849951503057930E-010
                   142 -1.968358602903540E-010
                   143 -2.606875723964920E-004
                   144  9.447348346666900E-005
                   145  1.469555908620723E-010
                   146 -9.685171938649124E-006
                   147  3.619146201277528E-005
                   148  9.274258992240200E-011
                   149  9.414560963309320E-011
                   150  4.496442504537864E-005
                   151 -3.959053529290759E-005
                   152 -3.694503286996720E-004
                   153  5.549849089616420E-004
                   154 -2.284022990118450E-004
                   155  3.297628078172290E-005
                   156  5.316097887686720E-005
                   157  5.752506227211520E-004
                   158  4.136901063092340E-010
                   159 -1.409602404248280E-004
                   160 -5.524190457575000E-004