[Molden Format]
[Atoms] AU
  N     1    7     0.0088599900   -4.2725018000    0.0000000100        
  C     2    6     0.1143943300   -1.7339816800    0.0000000000        
  C     3    6    -2.2257662100   -0.3737079800    0.0000000100        
  C     4    6     2.4018065900   -0.2788272700   -0.0000000300        
  C     5    6    -2.2439812500    2.2078724700   -0.0000000100        
  C     6    6     2.3342884000    2.2991455900    0.0000000000        
  C     7    6     0.0231153400    3.5733432000    0.0000000000        
  H     8    1    -4.0647629800   -7.3447418300    0.0000000100        
  H     9    1     1.8188095500   -4.9964270100    0.0000000200        
  H    10    1    -3.9476673300   -1.4388691000    0.0000000100        
  H    11    1     4.1775953000   -1.2622614700   -0.0000000300        
  H    12    1    -4.0091743300    3.2089730500   -0.0000000300        
  H    13    1     4.0617364800    3.3642852600    0.0000000100        
  H    14    1    -0.0164860800    5.6010230100    0.0000000100        
[5D]
[7F]
[GTO]
  1  0
   s    12 1.00
  0.114200D+05  0.172695D-04
  0.171200D+04  0.134411D-03
  0.389300D+03  0.694561D-03
  0.110000D+03  0.278531D-02
  0.355700D+02  0.863457D-02
  0.125400D+02  0.199805D-01
  0.464400D+01  0.262908D-01
  0.129300D+01 -0.243845D-01
  0.511800D+00 -0.924934D-01
  0.178700D+00 -0.339683D+00
  0.246240D-01  0.345111D+00
  0.112530D-01  0.752750D+00
   s    10 1.00
  0.114200D+05  0.523000D-03
  0.171200D+04  0.404500D-02
  0.389300D+03  0.207750D-01
  0.110000D+03  0.807269D-01
  0.355700D+02  0.233074D+00
  0.125400D+02  0.433501D+00
  0.464400D+01  0.347472D+00
  0.129300D+01  0.412620D-01
  0.511800D+00 -0.850799D-02
  0.178700D+00  0.238400D-02
   s    10 1.00
  0.114200D+05 -0.115000D-03
  0.171200D+04 -0.895000D-03
  0.389300D+03 -0.462400D-02
  0.110000D+03 -0.185280D-01
  0.355700D+02 -0.573390D-01
  0.125400D+02 -0.132076D+00
  0.464400D+01 -0.172510D+00
  0.129300D+01  0.151814D+00
  0.511800D+00  0.599944D+00
  0.178700D+00  0.387462D+00
   s     1 1.00
  0.129300D+01  0.100000D+01
   s     1 1.00
  0.178700D+00  0.100000D+01
   p     5 1.00
  0.266300D+02  0.146700D-01
  0.594800D+01  0.917640D-01
  0.174200D+01  0.298683D+00
  0.555000D+00  0.498487D+00
  0.172500D+00  0.337023D+00
   p     1 1.00
  0.174200D+01  0.100000D+01
   p     1 1.00
  0.555000D+00  0.100000D+01
   d     1 1.00
  0.165400D+01  0.100000D+01
   d     1 1.00
  0.469000D+00  0.100000D+01
   f     1 1.00
  0.109300D+01  0.100000D+01
  
  2  0
   s    10 1.00
  0.823600D+04  0.531000D-03
  0.123500D+04  0.410800D-02
  0.280800D+03  0.210870D-01
  0.792700D+02  0.818530D-01
  0.255900D+02  0.234817D+00
  0.899700D+01  0.434401D+00
  0.331900D+01  0.346129D+00
  0.905900D+00  0.393780D-01
  0.364300D+00 -0.898300D-02
  0.128500D+00  0.238500D-02
   s    10 1.00
  0.823600D+04 -0.113000D-03
  0.123500D+04 -0.878000D-03
  0.280800D+03 -0.454000D-02
  0.792700D+02 -0.181330D-01
  0.255900D+02 -0.557600D-01
  0.899700D+01 -0.126895D+00
  0.331900D+01 -0.170352D+00
  0.905900D+00  0.140382D+00
  0.364300D+00  0.598684D+00
  0.128500D+00  0.395389D+00
   s     1 1.00
  0.905900D+00  0.100000D+01
   s     1 1.00
  0.364300D+00  0.100000D+01
   p     5 1.00
  0.187100D+02  0.140310D-01
  0.413300D+01  0.868660D-01
  0.120000D+01  0.290216D+00
  0.382700D+00  0.501008D+00
  0.120900D+00  0.343406D+00
   p     1 1.00
  0.382700D+00  0.100000D+01
   p     1 1.00
  0.120900D+00  0.100000D+01
   d     1 1.00
  0.109700D+01  0.100000D+01
   d     1 1.00
  0.318000D+00  0.100000D+01
   f     1 1.00
  0.761000D+00  0.100000D+01
  
  3  0
   s    10 1.00
  0.823600D+04  0.531000D-03
  0.123500D+04  0.410800D-02
  0.280800D+03  0.210870D-01
  0.792700D+02  0.818530D-01
  0.255900D+02  0.234817D+00
  0.899700D+01  0.434401D+00
  0.331900D+01  0.346129D+00
  0.905900D+00  0.393780D-01
  0.364300D+00 -0.898300D-02
  0.128500D+00  0.238500D-02
   s    10 1.00
  0.823600D+04 -0.113000D-03
  0.123500D+04 -0.878000D-03
  0.280800D+03 -0.454000D-02
  0.792700D+02 -0.181330D-01
  0.255900D+02 -0.557600D-01
  0.899700D+01 -0.126895D+00
  0.331900D+01 -0.170352D+00
  0.905900D+00  0.140382D+00
  0.364300D+00  0.598684D+00
  0.128500D+00  0.395389D+00
   s     1 1.00
  0.905900D+00  0.100000D+01
   s     1 1.00
  0.364300D+00  0.100000D+01
   p     5 1.00
  0.187100D+02  0.140310D-01
  0.413300D+01  0.868660D-01
  0.120000D+01  0.290216D+00
  0.382700D+00  0.501008D+00
  0.120900D+00  0.343406D+00
   p     1 1.00
  0.382700D+00  0.100000D+01
   p     1 1.00
  0.120900D+00  0.100000D+01
   d     1 1.00
  0.109700D+01  0.100000D+01
   d     1 1.00
  0.318000D+00  0.100000D+01
   f     1 1.00
  0.761000D+00  0.100000D+01
  
  4  0
   s    10 1.00
  0.823600D+04  0.531000D-03
  0.123500D+04  0.410800D-02
  0.280800D+03  0.210870D-01
  0.792700D+02  0.818530D-01
  0.255900D+02  0.234817D+00
  0.899700D+01  0.434401D+00
  0.331900D+01  0.346129D+00
  0.905900D+00  0.393780D-01
  0.364300D+00 -0.898300D-02
  0.128500D+00  0.238500D-02
   s    10 1.00
  0.823600D+04 -0.113000D-03
  0.123500D+04 -0.878000D-03
  0.280800D+03 -0.454000D-02
  0.792700D+02 -0.181330D-01
  0.255900D+02 -0.557600D-01
  0.899700D+01 -0.126895D+00
  0.331900D+01 -0.170352D+00
  0.905900D+00  0.140382D+00
  0.364300D+00  0.598684D+00
  0.128500D+00  0.395389D+00
   s     1 1.00
  0.905900D+00  0.100000D+01
   s     1 1.00
  0.364300D+00  0.100000D+01
   p     5 1.00
  0.187100D+02  0.140310D-01
  0.413300D+01  0.868660D-01
  0.120000D+01  0.290216D+00
  0.382700D+00  0.501008D+00
  0.120900D+00  0.343406D+00
   p     1 1.00
  0.382700D+00  0.100000D+01
   p     1 1.00
  0.120900D+00  0.100000D+01
   d     1 1.00
  0.109700D+01  0.100000D+01
   d     1 1.00
  0.318000D+00  0.100000D+01
   f     1 1.00
  0.761000D+00  0.100000D+01
  
  5  0
   s    10 1.00
  0.823600D+04  0.531000D-03
  0.123500D+04  0.410800D-02
  0.280800D+03  0.210870D-01
  0.792700D+02  0.818530D-01
  0.255900D+02  0.234817D+00
  0.899700D+01  0.434401D+00
  0.331900D+01  0.346129D+00
  0.905900D+00  0.393780D-01
  0.364300D+00 -0.898300D-02
  0.128500D+00  0.238500D-02
   s    10 1.00
  0.823600D+04 -0.113000D-03
  0.123500D+04 -0.878000D-03
  0.280800D+03 -0.454000D-02
  0.792700D+02 -0.181330D-01
  0.255900D+02 -0.557600D-01
  0.899700D+01 -0.126895D+00
  0.331900D+01 -0.170352D+00
  0.905900D+00  0.140382D+00
  0.364300D+00  0.598684D+00
  0.128500D+00  0.395389D+00
   s     1 1.00
  0.905900D+00  0.100000D+01
   s     1 1.00
  0.364300D+00  0.100000D+01
   p     5 1.00
  0.187100D+02  0.140310D-01
  0.413300D+01  0.868660D-01
  0.120000D+01  0.290216D+00
  0.382700D+00  0.501008D+00
  0.120900D+00  0.343406D+00
   p     1 1.00
  0.382700D+00  0.100000D+01
   p     1 1.00
  0.120900D+00  0.100000D+01
   d     1 1.00
  0.109700D+01  0.100000D+01
   d     1 1.00
  0.318000D+00  0.100000D+01
   f     1 1.00
  0.761000D+00  0.100000D+01
  
  6  0
   s    10 1.00
  0.823600D+04  0.531000D-03
  0.123500D+04  0.410800D-02
  0.280800D+03  0.210870D-01
  0.792700D+02  0.818530D-01
  0.255900D+02  0.234817D+00
  0.899700D+01  0.434401D+00
  0.331900D+01  0.346129D+00
  0.905900D+00  0.393780D-01
  0.364300D+00 -0.898300D-02
  0.128500D+00  0.238500D-02
   s    10 1.00
  0.823600D+04 -0.113000D-03
  0.123500D+04 -0.878000D-03
  0.280800D+03 -0.454000D-02
  0.792700D+02 -0.181330D-01
  0.255900D+02 -0.557600D-01
  0.899700D+01 -0.126895D+00
  0.331900D+01 -0.170352D+00
  0.905900D+00  0.140382D+00
  0.364300D+00  0.598684D+00
  0.128500D+00  0.395389D+00
   s     1 1.00
  0.905900D+00  0.100000D+01
   s     1 1.00
  0.364300D+00  0.100000D+01
   p     5 1.00
  0.187100D+02  0.140310D-01
  0.413300D+01  0.868660D-01
  0.120000D+01  0.290216D+00
  0.382700D+00  0.501008D+00
  0.120900D+00  0.343406D+00
   p     1 1.00
  0.382700D+00  0.100000D+01
   p     1 1.00
  0.120900D+00  0.100000D+01
   d     1 1.00
  0.109700D+01  0.100000D+01
   d     1 1.00
  0.318000D+00  0.100000D+01
   f     1 1.00
  0.761000D+00  0.100000D+01
  
  7  0
   s    10 1.00
  0.823600D+04  0.531000D-03
  0.123500D+04  0.410800D-02
  0.280800D+03  0.210870D-01
  0.792700D+02  0.818530D-01
  0.255900D+02  0.234817D+00
  0.899700D+01  0.434401D+00
  0.331900D+01  0.346129D+00
  0.905900D+00  0.393780D-01
  0.364300D+00 -0.898300D-02
  0.128500D+00  0.238500D-02
   s    10 1.00
  0.823600D+04 -0.113000D-03
  0.123500D+04 -0.878000D-03
  0.280800D+03 -0.454000D-02
  0.792700D+02 -0.181330D-01
  0.255900D+02 -0.557600D-01
  0.899700D+01 -0.126895D+00
  0.331900D+01 -0.170352D+00
  0.905900D+00  0.140382D+00
  0.364300D+00  0.598684D+00
  0.128500D+00  0.395389D+00
   s     1 1.00
  0.905900D+00  0.100000D+01
   s     1 1.00
  0.364300D+00  0.100000D+01
   p     5 1.00
  0.187100D+02  0.140310D-01
  0.413300D+01  0.868660D-01
  0.120000D+01  0.290216D+00
  0.382700D+00  0.501008D+00
  0.120900D+00  0.343406D+00
   p     1 1.00
  0.382700D+00  0.100000D+01
   p     1 1.00
  0.120900D+00  0.100000D+01
   d     1 1.00
  0.109700D+01  0.100000D+01
   d     1 1.00
  0.318000D+00  0.100000D+01
   f     1 1.00
  0.761000D+00  0.100000D+01
  
  8  0
   s     4 1.00
  0.130100D+02  0.196850D-01
  0.196200D+01  0.137977D+00
  0.444600D+00  0.478148D+00
  0.122000D+00  0.501240D+00
   s     1 1.00
  0.122000D+00  0.100000D+01
   p     1 1.00
  0.727000D+00  0.100000D+01
  
  9  0
   s     4 1.00
  0.130100D+02  0.196850D-01
  0.196200D+01  0.137977D+00
  0.444600D+00  0.478148D+00
  0.122000D+00  0.501240D+00
   s     1 1.00
  0.122000D+00  0.100000D+01
   p     1 1.00
  0.727000D+00  0.100000D+01
  
 10  0
   s     4 1.00
  0.130100D+02  0.196850D-01
  0.196200D+01  0.137977D+00
  0.444600D+00  0.478148D+00
  0.122000D+00  0.501240D+00
   s     1 1.00
  0.122000D+00  0.100000D+01
   p     1 1.00
  0.727000D+00  0.100000D+01
  
 11  0
   s     4 1.00
  0.130100D+02  0.196850D-01
  0.196200D+01  0.137977D+00
  0.444600D+00  0.478148D+00
  0.122000D+00  0.501240D+00
   s     1 1.00
  0.122000D+00  0.100000D+01
   p     1 1.00
  0.727000D+00  0.100000D+01
  
 12  0
   s     4 1.00
  0.130100D+02  0.196850D-01
  0.196200D+01  0.137977D+00
  0.444600D+00  0.478148D+00
  0.122000D+00  0.501240D+00
   s     1 1.00
  0.122000D+00  0.100000D+01
   p     1 1.00
  0.727000D+00  0.100000D+01
  
 13  0
   s     4 1.00
  0.130100D+02  0.196850D-01
  0.196200D+01  0.137977D+00
  0.444600D+00  0.478148D+00
  0.122000D+00  0.501240D+00
   s     1 1.00
  0.122000D+00  0.100000D+01
   p     1 1.00
  0.727000D+00  0.100000D+01
  
 14  0
   s     4 1.00
  0.130100D+02  0.196850D-01
  0.196200D+01  0.137977D+00
  0.444600D+00  0.478148D+00
  0.122000D+00  0.501240D+00
   s     1 1.00
  0.122000D+00  0.100000D+01
   p     1 1.00
  0.727000D+00  0.100000D+01
  
[MO]
 Sym= __1_A__
 Ene=  0.000000000000000E+000
 Spin= Alpha
 Occup=    2.00000000000000     
                     1  1.028584320554193E-004
                     2  0.998353391350757     
                     3 -2.869603860172394E-003
                     4  1.840458176001192E-003
                     5  6.537005544128401E-003
                     6  2.802246440148113E-003
                     7  5.889063206019496E-003
                     8  5.567544441814294E-010
                     9 -7.119245742611411E-004
                    10 -7.410988856619004E-004
                    11 -9.383396506213014E-012
                    12 -2.479636445512379E-003
                    13 -1.952961709727554E-003
                    14 -4.499025138012068E-009
                    15 -3.170465629556947E-005
                    16  2.186720618501686E-010
                    17 -5.112723489228032E-013
                    18 -1.535553663829528E-004
                    19 -6.407124834677665E-005
                    20  9.302108656318859E-005
                    21  1.943476905846843E-010
                    22  2.816810625314460E-010
                    23 -2.160248122821284E-004
                    24  4.994938953615706E-004
                    25 -2.355686845822076E-010
                    26 -4.820228637387091E-006
                    27 -4.895922974770251E-005
                    28  1.526599907530260E-010
                    29 -2.006476206684541E-010
                    30  3.373781920009051E-005
                    31 -1.094896141831943E-004
                    32 -3.544887706698801E-004
                    33  1.421996096095826E-004
                    34  3.266480332773051E-004
                    35 -1.284683790032113E-004
                    36 -6.941109261188750E-005
                    37 -2.536733431775552E-003
                    38 -5.191510993687618E-009
                    39  3.733888164732217E-004
                    40  2.067072790316251E-004
                    41  2.644825383607825E-010
                    42 -2.153626600004389E-003
                    43  5.006749476163519E-003
                    44 -1.571319294460213E-009
                    45  7.556694170406043E-006
                    46  8.938881707865763E-012
                    47 -9.118466509712187E-011
                    48 -1.238738558519154E-004
                    49  1.256989410911308E-005
                    50 -1.950709063083335E-004
                    51  1.611496710106540E-012
                    52  2.152523709210867E-010
                    53  2.069787167967022E-005
                    54  7.827054708186339E-004
                    55 -9.852998519324607E-011
                    56 -3.080271299973486E-006
                    57 -7.572313069457676E-005
                    58 -9.551969734232195E-011
                    59 -3.451522099678929E-011
                    60  1.750314744946514E-005
                    61 -1.302872017274602E-004
                    62 -5.483056197282132E-004
                    63 -2.156536481997336E-003
                    64 -9.057564984863308E-005
                    65  2.248408396843553E-003
                    66 -4.517738047667874E-004
                    67  1.053936072253352E-004
                    68 -3.041218679169737E-009
                    69  3.838246835976445E-004
                    70  8.967854585952670E-004
                    71 -5.859195600788184E-011
                    72 -1.805837814716622E-003
                    73  6.862474501573906E-004
                    74  8.975075967770755E-010
                    75 -4.544299328488311E-005
                    76 -1.290761774947380E-010
                    77  2.500165914092835E-011
                    78 -6.000070268009218E-005
                    79 -2.388171473917605E-005
                    80 -1.347324162365329E-004
                    81  7.199787876866923E-011
                    82 -3.139853377698001E-011
                    83  3.015006341944422E-005
                    84  5.790436636634537E-006
                    85 -6.169111919956712E-012
                    86  9.656803269812612E-006
                    87 -4.655235046081586E-005
                    88 -1.045598083842008E-010
                    89 -8.284660945335664E-012
                    90 -2.911316421251120E-005
                    91 -1.558913429128541E-004
                    92 -1.762725611098272E-004
                    93 -6.373110907482454E-004
                    94  1.613082140027389E-004
                    95 -8.479956326259244E-005
                    96  1.972056730814401E-004
                    97  2.177837903513874E-005
                    98 -3.072707093426486E-009
                    99  3.447191887952769E-004
                   100  3.785489778885821E-004
                   101 -6.304412480868465E-011
                   102  6.174081207083028E-004
                   103 -1.760618794625344E-003
                   104  8.872240026358764E-010
                   105 -1.168706684917897E-005
                   106  1.247203842501102E-010
                   107  3.763820089475506E-011
                   108 -4.338952591806754E-005
                   109 -1.504541402714437E-005
                   110  8.500928511654505E-005
                   111 -8.809672865625675E-011
                   112 -7.227096713338153E-011
                   113 -1.630477643248343E-004
                   114  8.504829581358024E-005
                   115  4.367802649927794E-012
                   116 -1.930113563884037E-005
                   117 -2.252212937270184E-005
                   118 -1.010830077679569E-010
                   119  4.229659947566908E-012
                   120 -1.175548589447586E-005
                   121 -3.748899622080543E-005
                   122 -2.456845688285245E-004
                   123 -6.153762860425805E-004
                   124  1.727534392907820E-004
                   125  3.034386394596635E-004
                   126 -3.047149803089988E-005
                   127 -3.132022811395625E-004
                   128 -1.362598979990793E-009
                   129  2.311978634336301E-004
                   130  6.578832449772265E-004
                   131 -4.500948228025501E-011
                   132  4.342947884276233E-004
                   133  2.015767969475127E-003
                   134 -2.628639063346475E-011
                   135  1.446028255868983E-005
                   136 -2.986701557235745E-012
                   137  4.016069343136319E-010
                   138  4.711644130798236E-005
                   139 -1.511023648968121E-006
                   140  2.064585410650194E-004
                   141 -1.138093001676299E-012
                   142 -3.934918779381997E-011
                   143  4.007244118128522E-004
                   144  2.314352954961434E-004
                   145 -3.047525504834903E-011
                   146 -1.161457650417364E-005
                   147 -6.473532373591916E-005
                   148  3.893761756201880E-011
                   149  3.224321151711233E-011
                   150 -1.500712290530303E-005
                   151 -5.446822162092672E-005
                   152 -1.339835971283656E-004
                   153 -3.679852388225994E-004
                   154  5.471032770232690E-005
                   155  1.977088070108856E-004
                   156  4.678032276864665E-006
                   157 -8.790591304748832E-005
                   158 -1.437913205273915E-009
                   159  8.926346223289569E-006
                   160  4.786386894295012E-005
                   161 -1.162510940040087E-011
                   162  7.525436764248976E-004
                   163 -3.858854953106831E-004
                   164 -1.428649112382310E-012
                   165  1.591089220438602E-006
                   166 -2.005412304148435E-012
                   167  4.200333747421582E-010
                   168  2.151714043952942E-006
                   169  1.043730391824972E-005
                   170  1.040729474799828E-004
                   171 -3.073326218368559E-012
                   172 -7.813488106381742E-011
                   173  4.458917827857402E-005
                   174  3.283930940226306E-005
                   175 -2.706456858375188E-011
                   176  3.662540166878046E-006
                   177 -1.334783821145330E-005
                   178  3.963939139916748E-011
                   179 -3.389429354134165E-011
                   180 -2.370462455597183E-005
                   181 -2.852508416110702E-005
                   182 -1.390232504788592E-004
                   183 -4.076887636464514E-004
                   184  3.209977576567694E-005
                   185  2.079835392257131E-004
                   186 -4.665473338632560E-005
                   187 -6.192940191161995E-005
                   188 -4.286661174920481E-010
                   189  2.646963169466775E-004
                   190  1.208428671906999E-004
                   191 -1.013571303623704E-010
                   192  1.363882455700019E-003
                   193 -3.110958626735900E-004
                   194  4.559633594262305E-010
                   195  1.176496417171786E-006
                   196 -1.919545881715189E-012
                   197  7.060046977880690E-011
                   198 -3.732651144537442E-006
                   199  4.307997078132430E-006
                   200 -9.360703902228196E-006
                   201 -3.178878262979260E-012
                   202  8.907225480222084E-011
                   203 -6.983655306831842E-005
                   204 -2.053330573129012E-004
                   205 -6.583633038795567E-011
                   206 -9.790445886876710E-006
                   207 -4.022998618568089E-006
                   208 -4.365312395805964E-011
                   209  1.945838013809276E-012
                   210  8.208301030721939E-006
                   211 -4.501226585731595E-006
                   212 -4.175146200972106E-005
                   213  1.084596697907566E-004
                   214  2.170258963417634E-005
                   215  2.695408699543109E-005
                   216 -2.550221175102255E-011
                   217 -8.848365932869815E-004
                   218 -6.118362373400557E-004
                   219 -2.405406676272405E-004
                   220  5.564681343021564E-005
                   221 -2.684921052068214E-010
                   222 -2.115579094757966E-004
                   223 -6.222078125532063E-004
                   224  2.346180695522038E-005
                   225 -6.042593459751279E-005
                   226 -5.085356101566703E-011
                   227  6.261476454837699E-005
                   228 -6.544563213982855E-004
                   229 -4.371459389066719E-005
                   230 -1.379852958224494E-005
                   231 -5.665846182813840E-011
                   232  1.479076958542526E-005
                   233 -4.874570326651091E-004
                   234  1.269254718274609E-005
                   235 -4.069042095201712E-006
                   236 -6.713746814080392E-012
                   237  3.124360717819111E-006
                   238 -3.608632784621464E-004
                   239 -6.923859111569367E-006
                   240 -2.255402781247659E-006
                   241 -6.682749354820561E-012
                   242 -6.224487624745061E-005
                   243  9.099116507014639E-005
                   244 -1.261023556192688E-007
                   245  3.043811093648347E-005
                   246 -4.039028166341597E-011
 Sym= __2_A__
 Ene=  0.000000000000000E+000
 Spin= Alpha
 Occup=    2.00000000000000     
                     1  4.521379977005391E-005
                     2  3.099767693905812E-004
                     3 -3.419330550701861E-003
                     4 -1.085602002501031E-004
                     5 -1.393430305199671E-003
                     6  6.591052758740234E-004
                     7 -3.395551633811896E-003
                     8  2.896375799670558E-009
                     9  1.564677641183624E-005
                    10  1.032724741203719E-004
                    11 -1.605854934487962E-010
                    12  1.893591729329628E-005
                    13  2.824838942315718E-004
                    14  1.083190844257889E-010
                    15 -2.149148426606894E-005
                    16  1.778750273780515E-013
                    17 -1.460021136176016E-011
                    18  6.266946057655477E-005
                    19 -2.454598870832047E-005
                    20  1.311792708156243E-004
                    21  2.676969233349971E-011
                    22  3.102928155876699E-010
                    23 -7.023098623773422E-005
                    24  1.467978108214787E-004
                    25  1.944463403721428E-010
                    26  1.659925835720856E-005
                    27 -8.622728855205349E-005
                    28 -1.642981139240257E-010
                    29  2.019972340957304E-010
                    30  6.513573443101598E-005
                    31 -1.399793215043699E-004
                    32  -1.00081763605794     
                    33 -9.235177912309551E-003
                    34 -2.810629814246077E-003
                    35  8.128154720189983E-003
                    36  2.577253543725651E-004
                    37  3.941440146006096E-003
                    38  5.504715012134227E-009
                    39  1.828097479651194E-004
                    40 -2.751390606762962E-004
                    41 -2.213919332446899E-009
                    42  1.349348197821352E-004
                    43 -4.277983452340273E-003
                    44 -4.938127150606486E-010
                    45  5.215748507937800E-004
                    46  1.209367438550283E-011
                    47  4.502802024813439E-011
                    48  2.150689519408810E-004
                    49 -3.481626710841543E-005
                    50 -5.537532827319771E-004
                    51 -9.461840666916129E-011
                    52  3.826746342226466E-010
                    53  6.607032939349446E-004
                    54  4.528542302177187E-004
                    55 -7.682189639570101E-011
                    56 -1.713146941369508E-005
                    57 -1.031355367497027E-004
                    58  9.156771804965826E-011
                    59  6.356324565556022E-011
                    60  2.434745839268214E-005
                    61 -3.797637135208695E-004
                    62 -1.359063654620743E-002
                    63  2.169811368423378E-003
                    64  2.211244127322752E-004
                    65 -2.677392380862985E-003
                    66  7.210907970263186E-005
                    67 -2.648891841389021E-004
                    68  1.540504965489345E-009
                    69 -4.926578079157922E-004
                    70 -1.689698456103884E-004
                    71 -1.280341925609206E-010
                    72  2.121904373899112E-003
                    73 -2.528822439745979E-004
                    74 -6.272588143426170E-010
                    75 -3.616635328955519E-005
                    76  6.010826900411803E-011
                    77  1.202397313355958E-012
                    78  2.012092288657622E-005
                    79 -3.544696676800403E-006
                    80  4.251425815711331E-004
                    81 -7.394589625810303E-011
                    82 -2.623829585271640E-010
                    83  6.810237301318726E-004
                    84  2.506121942833137E-004
                    85  1.705746617241136E-011
                    86 -3.043320179731327E-005
                    87  5.844658718139104E-005
                    88  6.463529669466990E-011
                    89 -6.149828149998461E-011
                    90 -5.251204903747626E-005
                    91 -1.491835935499818E-004
                    92 -1.713971695459740E-002
                    93  2.250557268855770E-003
                    94  2.944709991495754E-004
                    95 -3.199552856640630E-003
                    96 -4.053953577529337E-004
                    97 -4.186705886251040E-004
                    98  1.612910690014733E-009
                    99  9.668630713737174E-004
                   100  1.634114720803948E-005
                   101 -1.514454394068810E-010
                   102 -1.726388903112454E-003
                   103  3.976816827930916E-005
                   104 -5.957116027655842E-010
                   105 -2.284543605497755E-005
                   106 -5.730663740906684E-011
                   107  1.336664657348121E-012
                   108  1.825388743820405E-005
                   109 -1.124156762798167E-006
                   110  4.160661670568857E-004
                   111  3.657477589000468E-011
                   112 -3.549373278429531E-010
                   113  3.909973787000042E-004
                   114 -2.307157511457293E-004
                   115  2.255644889346887E-011
                   116  3.246294396588152E-005
                   117  7.457003464807380E-005
                   118  6.869414386261776E-011
                   119  9.110955004646203E-011
                   120  3.475623867921740E-006
                   121 -1.368073344684014E-004
                   122 -5.446632013040344E-005
                   123  6.035836744912803E-004
                   124 -2.298423233464377E-004
                   125  1.252472073635831E-004
                   126 -2.030470825018742E-006
                   127  5.093890007654622E-004
                   128  3.359634538849887E-010
                   129  8.270339853501143E-005
                   130 -6.318144873719596E-004
                   131  7.003342925261838E-010
                   132 -3.639168350413505E-004
                   133 -9.618883285215952E-004
                   134  8.267005710738074E-010
                   135 -1.793507648615373E-005
                   136 -5.190232966632482E-011
                   137  1.323194996925010E-011
                   138 -2.923789810478036E-007
                   139 -4.679135676509636E-005
                   140 -1.279691348445377E-004
                   141  7.853615759219205E-010
                   142 -1.964143778358341E-010
                   143 -2.606875723606672E-004
                   144  9.447348339850414E-005
                   145  1.469262830601453E-010
                   146 -9.685171939276545E-006
                   147  3.619146202094412E-005
                   148  9.279648695928985E-011
                   149  9.416115082885494E-011
                   150  4.496442505697082E-005
                   151 -3.959053529595431E-005
                   152 -3.694503290516317E-004
                   153  5.549849095965843E-004
                   154 -2.284022990466274E-004
                   155  3.297628044596493E-005
                   156  5.316097886020661E-005
                   157  5.752506224371781E-004
                   158  4.096423896775951E-010
                   159 -1.409602404398411E-004
                   160 -5.524190458219843E-004