[Molden Format]
[Atoms] AU
  N     1    7    -4.4674115400    0.1299480000   -0.1665715900        
  C     2    6    -1.7686164300   -0.0226762900   -0.0734940700        
  C     3    6    -0.3952292700    0.0747027300   -2.3230626000        
  C     4    6    -0.4608559900   -0.0927623400    2.2087564000        
  C     5    6     2.2155522100    0.0583120800   -2.2755279500        
  C     6    6     2.1596792700   -0.0638077700    2.2373418100        
  C     7    6     3.5102109800    0.0003659000    0.0025060200        
  H     8    1    -5.1854114000   -1.3826673000   -1.1414032800        
  H     9    1    -5.1659542100   -0.0040495200    1.6355539800        
  H    10    1    -1.3837254200    0.1755351000   -4.0900025600        
  H    11    1    -1.4868802500   -0.1793752800    3.9565594000        
  H    12    1     3.2461690500    0.1192374900   -4.0223389300        
  H    13    1     3.1376234500   -0.1123958300    4.0146955700        
  H    14    1     5.5381932100    0.0078400300    0.0285142100        
[5D]
[7F]
[GTO]
  1  0
   s    12 1.00
  0.114200D+05  0.172695D-04
  0.171200D+04  0.134411D-03
  0.389300D+03  0.694561D-03
  0.110000D+03  0.278531D-02
  0.355700D+02  0.863457D-02
  0.125400D+02  0.199805D-01
  0.464400D+01  0.262908D-01
  0.129300D+01 -0.243845D-01
  0.511800D+00 -0.924934D-01
  0.178700D+00 -0.339683D+00
  0.246240D-01  0.345111D+00
  0.112530D-01  0.752750D+00
   s    10 1.00
  0.114200D+05  0.523000D-03
  0.171200D+04  0.404500D-02
  0.389300D+03  0.207750D-01
  0.110000D+03  0.807269D-01
  0.355700D+02  0.233074D+00
  0.125400D+02  0.433501D+00
  0.464400D+01  0.347472D+00
  0.129300D+01  0.412620D-01
  0.511800D+00 -0.850799D-02
  0.178700D+00  0.238400D-02
   s    10 1.00
  0.114200D+05 -0.115000D-03
  0.171200D+04 -0.895000D-03
  0.389300D+03 -0.462400D-02
  0.110000D+03 -0.185280D-01
  0.355700D+02 -0.573390D-01
  0.125400D+02 -0.132076D+00
  0.464400D+01 -0.172510D+00
  0.129300D+01  0.151814D+00
  0.511800D+00  0.599944D+00
  0.178700D+00  0.387462D+00
   s     1 1.00
  0.129300D+01  0.100000D+01
   s     1 1.00
  0.178700D+00  0.100000D+01
   p     5 1.00
  0.266300D+02  0.146700D-01
  0.594800D+01  0.917640D-01
  0.174200D+01  0.298683D+00
  0.555000D+00  0.498487D+00
  0.172500D+00  0.337023D+00
   p     1 1.00
  0.174200D+01  0.100000D+01
   p     1 1.00
  0.555000D+00  0.100000D+01
   d     1 1.00
  0.165400D+01  0.100000D+01
   d     1 1.00
  0.469000D+00  0.100000D+01
   f     1 1.00
  0.109300D+01  0.100000D+01
  
  2  0
   s    10 1.00
  0.823600D+04  0.531000D-03
  0.123500D+04  0.410800D-02
  0.280800D+03  0.210870D-01
  0.792700D+02  0.818530D-01
  0.255900D+02  0.234817D+00
  0.899700D+01  0.434401D+00
  0.331900D+01  0.346129D+00
  0.905900D+00  0.393780D-01
  0.364300D+00 -0.898300D-02
  0.128500D+00  0.238500D-02
   s    10 1.00
  0.823600D+04 -0.113000D-03
  0.123500D+04 -0.878000D-03
  0.280800D+03 -0.454000D-02
  0.792700D+02 -0.181330D-01
  0.255900D+02 -0.557600D-01
  0.899700D+01 -0.126895D+00
  0.331900D+01 -0.170352D+00
  0.905900D+00  0.140382D+00
  0.364300D+00  0.598684D+00
  0.128500D+00  0.395389D+00
   s     1 1.00
  0.905900D+00  0.100000D+01
   s     1 1.00
  0.364300D+00  0.100000D+01
   p     5 1.00
  0.187100D+02  0.140310D-01
  0.413300D+01  0.868660D-01
  0.120000D+01  0.290216D+00
  0.382700D+00  0.501008D+00
  0.120900D+00  0.343406D+00
   p     1 1.00
  0.382700D+00  0.100000D+01
   p     1 1.00
  0.120900D+00  0.100000D+01
   d     1 1.00
  0.109700D+01  0.100000D+01
   d     1 1.00
  0.318000D+00  0.100000D+01
   f     1 1.00
  0.761000D+00  0.100000D+01
  
  3  0
   s    10 1.00
  0.823600D+04  0.531000D-03
  0.123500D+04  0.410800D-02
  0.280800D+03  0.210870D-01
  0.792700D+02  0.818530D-01
  0.255900D+02  0.234817D+00
  0.899700D+01  0.434401D+00
  0.331900D+01  0.346129D+00
  0.905900D+00  0.393780D-01
  0.364300D+00 -0.898300D-02
  0.128500D+00  0.238500D-02
   s    10 1.00
  0.823600D+04 -0.113000D-03
  0.123500D+04 -0.878000D-03
  0.280800D+03 -0.454000D-02
  0.792700D+02 -0.181330D-01
  0.255900D+02 -0.557600D-01
  0.899700D+01 -0.126895D+00
  0.331900D+01 -0.170352D+00
  0.905900D+00  0.140382D+00
  0.364300D+00  0.598684D+00
  0.128500D+00  0.395389D+00
   s     1 1.00
  0.905900D+00  0.100000D+01
   s     1 1.00
  0.364300D+00  0.100000D+01
   p     5 1.00
  0.187100D+02  0.140310D-01
  0.413300D+01  0.868660D-01
  0.120000D+01  0.290216D+00
  0.382700D+00  0.501008D+00
  0.120900D+00  0.343406D+00
   p     1 1.00
  0.382700D+00  0.100000D+01
   p     1 1.00
  0.120900D+00  0.100000D+01
   d     1 1.00
  0.109700D+01  0.100000D+01
   d     1 1.00
  0.318000D+00  0.100000D+01
   f     1 1.00
  0.761000D+00  0.100000D+01
  
  4  0
   s    10 1.00
  0.823600D+04  0.531000D-03
  0.123500D+04  0.410800D-02
  0.280800D+03  0.210870D-01
  0.792700D+02  0.818530D-01
  0.255900D+02  0.234817D+00
  0.899700D+01  0.434401D+00
  0.331900D+01  0.346129D+00
  0.905900D+00  0.393780D-01
  0.364300D+00 -0.898300D-02
  0.128500D+00  0.238500D-02
   s    10 1.00
  0.823600D+04 -0.113000D-03
  0.123500D+04 -0.878000D-03
  0.280800D+03 -0.454000D-02
  0.792700D+02 -0.181330D-01
  0.255900D+02 -0.557600D-01
  0.899700D+01 -0.126895D+00
  0.331900D+01 -0.170352D+00
  0.905900D+00  0.140382D+00
  0.364300D+00  0.598684D+00
  0.128500D+00  0.395389D+00
   s     1 1.00
  0.905900D+00  0.100000D+01
   s     1 1.00
  0.364300D+00  0.100000D+01
   p     5 1.00
  0.187100D+02  0.140310D-01
  0.413300D+01  0.868660D-01
  0.120000D+01  0.290216D+00
  0.382700D+00  0.501008D+00
  0.120900D+00  0.343406D+00
   p     1 1.00
  0.382700D+00  0.100000D+01
   p     1 1.00
  0.120900D+00  0.100000D+01
   d     1 1.00
  0.109700D+01  0.100000D+01
   d     1 1.00
  0.318000D+00  0.100000D+01
   f     1 1.00
  0.761000D+00  0.100000D+01
  
  5  0
   s    10 1.00
  0.823600D+04  0.531000D-03
  0.123500D+04  0.410800D-02
  0.280800D+03  0.210870D-01
  0.792700D+02  0.818530D-01
  0.255900D+02  0.234817D+00
  0.899700D+01  0.434401D+00
  0.331900D+01  0.346129D+00
  0.905900D+00  0.393780D-01
  0.364300D+00 -0.898300D-02
  0.128500D+00  0.238500D-02
   s    10 1.00
  0.823600D+04 -0.113000D-03
  0.123500D+04 -0.878000D-03
  0.280800D+03 -0.454000D-02
  0.792700D+02 -0.181330D-01
  0.255900D+02 -0.557600D-01
  0.899700D+01 -0.126895D+00
  0.331900D+01 -0.170352D+00
  0.905900D+00  0.140382D+00
  0.364300D+00  0.598684D+00
  0.128500D+00  0.395389D+00
   s     1 1.00
  0.905900D+00  0.100000D+01
   s     1 1.00
  0.364300D+00  0.100000D+01
   p     5 1.00
  0.187100D+02  0.140310D-01
  0.413300D+01  0.868660D-01
  0.120000D+01  0.290216D+00
  0.382700D+00  0.501008D+00
  0.120900D+00  0.343406D+00
   p     1 1.00
  0.382700D+00  0.100000D+01
   p     1 1.00
  0.120900D+00  0.100000D+01
   d     1 1.00
  0.109700D+01  0.100000D+01
   d     1 1.00
  0.318000D+00  0.100000D+01
   f     1 1.00
  0.761000D+00  0.100000D+01
  
  6  0
   s    10 1.00
  0.823600D+04  0.531000D-03
  0.123500D+04  0.410800D-02
  0.280800D+03  0.210870D-01
  0.792700D+02  0.818530D-01
  0.255900D+02  0.234817D+00
  0.899700D+01  0.434401D+00
  0.331900D+01  0.346129D+00
  0.905900D+00  0.393780D-01
  0.364300D+00 -0.898300D-02
  0.128500D+00  0.238500D-02
   s    10 1.00
  0.823600D+04 -0.113000D-03
  0.123500D+04 -0.878000D-03
  0.280800D+03 -0.454000D-02
  0.792700D+02 -0.181330D-01
  0.255900D+02 -0.557600D-01
  0.899700D+01 -0.126895D+00
  0.331900D+01 -0.170352D+00
  0.905900D+00  0.140382D+00
  0.364300D+00  0.598684D+00
  0.128500D+00  0.395389D+00
   s     1 1.00
  0.905900D+00  0.100000D+01
   s     1 1.00
  0.364300D+00  0.100000D+01
   p     5 1.00
  0.187100D+02  0.140310D-01
  0.413300D+01  0.868660D-01
  0.120000D+01  0.290216D+00
  0.382700D+00  0.501008D+00
  0.120900D+00  0.343406D+00
   p     1 1.00
  0.382700D+00  0.100000D+01
   p     1 1.00
  0.120900D+00  0.100000D+01
   d     1 1.00
  0.109700D+01  0.100000D+01
   d     1 1.00
  0.318000D+00  0.100000D+01
   f     1 1.00
  0.761000D+00  0.100000D+01
  
  7  0
   s    10 1.00
  0.823600D+04  0.531000D-03
  0.123500D+04  0.410800D-02
  0.280800D+03  0.210870D-01
  0.792700D+02  0.818530D-01
  0.255900D+02  0.234817D+00
  0.899700D+01  0.434401D+00
  0.331900D+01  0.346129D+00
  0.905900D+00  0.393780D-01
  0.364300D+00 -0.898300D-02
  0.128500D+00  0.238500D-02
   s    10 1.00
  0.823600D+04 -0.113000D-03
  0.123500D+04 -0.878000D-03
  0.280800D+03 -0.454000D-02
  0.792700D+02 -0.181330D-01
  0.255900D+02 -0.557600D-01
  0.899700D+01 -0.126895D+00
  0.331900D+01 -0.170352D+00
  0.905900D+00  0.140382D+00
  0.364300D+00  0.598684D+00
  0.128500D+00  0.395389D+00
   s     1 1.00
  0.905900D+00  0.100000D+01
   s     1 1.00
  0.364300D+00  0.100000D+01
   p     5 1.00
  0.187100D+02  0.140310D-01
  0.413300D+01  0.868660D-01
  0.120000D+01  0.290216D+00
  0.382700D+00  0.501008D+00
  0.120900D+00  0.343406D+00
   p     1 1.00
  0.382700D+00  0.100000D+01
   p     1 1.00
  0.120900D+00  0.100000D+01
   d     1 1.00
  0.109700D+01  0.100000D+01
   d     1 1.00
  0.318000D+00  0.100000D+01
   f     1 1.00
  0.761000D+00  0.100000D+01
  
  8  0
   s     4 1.00
  0.130100D+02  0.196850D-01
  0.196200D+01  0.137977D+00
  0.444600D+00  0.478148D+00
  0.122000D+00  0.501240D+00
   s     1 1.00
  0.122000D+00  0.100000D+01
   p     1 1.00
  0.727000D+00  0.100000D+01
  
  9  0
   s     4 1.00
  0.130100D+02  0.196850D-01
  0.196200D+01  0.137977D+00
  0.444600D+00  0.478148D+00
  0.122000D+00  0.501240D+00
   s     1 1.00
  0.122000D+00  0.100000D+01
   p     1 1.00
  0.727000D+00  0.100000D+01
  
 10  0
   s     4 1.00
  0.130100D+02  0.196850D-01
  0.196200D+01  0.137977D+00
  0.444600D+00  0.478148D+00
  0.122000D+00  0.501240D+00
   s     1 1.00
  0.122000D+00  0.100000D+01
   p     1 1.00
  0.727000D+00  0.100000D+01
  
 11  0
   s     4 1.00
  0.130100D+02  0.196850D-01
  0.196200D+01  0.137977D+00
  0.444600D+00  0.478148D+00
  0.122000D+00  0.501240D+00
   s     1 1.00
  0.122000D+00  0.100000D+01
   p     1 1.00
  0.727000D+00  0.100000D+01
  
 12  0
   s     4 1.00
  0.130100D+02  0.196850D-01
  0.196200D+01  0.137977D+00
  0.444600D+00  0.478148D+00
  0.122000D+00  0.501240D+00
   s     1 1.00
  0.122000D+00  0.100000D+01
   p     1 1.00
  0.727000D+00  0.100000D+01
  
 13  0
   s     4 1.00
  0.130100D+02  0.196850D-01
  0.196200D+01  0.137977D+00
  0.444600D+00  0.478148D+00
  0.122000D+00  0.501240D+00
   s     1 1.00
  0.122000D+00  0.100000D+01
   p     1 1.00
  0.727000D+00  0.100000D+01
  
 14  0
   s     4 1.00
  0.130100D+02  0.196850D-01
  0.196200D+01  0.137977D+00
  0.444600D+00  0.478148D+00
  0.122000D+00  0.501240D+00
   s     1 1.00
  0.122000D+00  0.100000D+01
   p     1 1.00
  0.727000D+00  0.100000D+01
  
[MO]
 Sym= __1_A__
 Ene=  0.000000000000000E+000
 Spin= Alpha
 Occup=    2.00000000000000     
                     1  2.303226915055946E-004
                     2  0.998080053059657     
                     3  2.589258277822493E-003
                     4  1.928659099404259E-003
                     5  5.926438662839248E-003
                     6  5.662673444131139E-003
                     7 -4.460809217952664E-003
                     8  2.973472641104457E-003
                     9 -8.226678193312114E-004
                    10  2.783095756542223E-004
                    11 -3.456514999494956E-004
                    12 -1.547433818974366E-003
                    13  2.920969880195219E-003
                    14 -1.773112808068245E-003
                    15 -6.750058977186243E-006
                    16 -4.587319560803014E-005
                    17 -7.461616613105771E-006
                    18  5.955759796805016E-005
                    19  5.435147635010932E-005
                    20 -3.068144527096837E-004
                    21  3.355470093326762E-004
                    22 -1.631090730564678E-004
                    23  9.212017314339688E-005
                    24 -4.314917618241147E-004
                    25 -5.226511603658598E-005
                    26 -1.235002170833413E-004
                    27 -4.084177096828645E-006
                    28  6.278595930352043E-005
                    29 -2.137602109057512E-005
                    30 -1.047760999494520E-004
                    31 -3.238984359012978E-005
                    32 -3.667605933434846E-004
                    33  8.047335274921211E-004
                    34  2.461687352270933E-004
                    35 -8.983642242666141E-005
                    36 -3.993072596444077E-003
                    37 -8.580669742519709E-005
                    38 -1.709816762787078E-004
                    39  2.092252747792198E-004
                    40 -3.655150310459055E-005
                    41  5.264054927372157E-004
                    42  4.814874447335722E-003
                    43  7.716451346705754E-004
                    44 -2.375728884774659E-003
                    45 -2.074590737168082E-004
                    46  2.403054317756757E-005
                    47  7.981026549364739E-006
                    48  1.967866965613240E-004
                    49  4.596111335972484E-005
                    50  4.955142362281517E-004
                    51  4.073872778816145E-004
                    52 -5.495648179043758E-005
                    53 -8.366088019880955E-005
                    54 -3.428361324678224E-004
                    55  2.660491475630912E-005
                    56 -5.418739950162303E-005
                    57  4.194285057266905E-006
                    58  2.210345132836306E-005
                    59  2.188505494437120E-006
                    60 -3.440321710986575E-005
                    61  2.980480970518702E-005
                    62 -5.844733243024843E-004
                    63 -2.452664823710140E-003
                    64  2.156788342687938E-006
                    65  1.907026398963019E-003
                    66  4.100163411056844E-004
                    67 -1.059473905967981E-004
                    68 -6.038002375316249E-004
                    69  8.166707331200742E-004
                    70  5.622418856936520E-005
                    71  4.150514578230035E-004
                    72  1.002783793106827E-003
                    73 -2.493740317848859E-004
                    74 -1.346359126279644E-003
                    75 -7.072731888088794E-005
                    76 -2.444163210500730E-005
                    77  1.791484513544002E-005
                    78  7.497510099472913E-005
                    79 -5.926376367746910E-006
                    80  3.257072189526169E-004
                    81  1.921417597198902E-004
                    82 -4.779647525225669E-005
                    83 -5.712518439672082E-005
                    84  2.704319945866874E-005
                    85 -1.817251457657560E-005
                    86 -1.110224426320013E-004
                    87  1.897717623716200E-005
                    88 -3.466780205699432E-007
                    89  1.323425644424701E-005
                    90 -6.556935480134051E-005
                    91 -1.122067907913143E-005
                    92 -1.346786999392143E-004
                    93 -9.816562445731168E-004
                    94  2.051997916153639E-004
                    95 -2.789953002136330E-004
                    96  5.637044542002244E-004
                    97 -1.125400446306745E-004
                    98  4.600562898487057E-004
                    99  3.511880989804449E-004
                   100  7.875364545599614E-005
                   101  2.091232845240524E-004
                   102 -1.861475639581787E-003
                   103 -2.994851392181039E-004
                   104  2.602017816082344E-004
                   105 -6.774646895611946E-005
                   106  3.666168436634632E-006
                   107 -1.192647540776553E-005
                   108  4.643404713922516E-005
                   109 -9.111140472302904E-006
                   110  3.179156827069954E-005
                   111 -1.983567484701584E-004
                   112  1.096042892978747E-005
                   113 -2.038589459871088E-004
                   114  5.668578467405938E-005
                   115 -8.912509826223585E-006
                   116  4.275082139034349E-006
                   117  1.851697972794595E-005
                   118  1.753051655367064E-005
                   119 -1.079503966015497E-005
                   120 -2.378325155071934E-005
                   121 -7.072935940550875E-006
                   122 -2.663327580091936E-004
                   123 -5.976926243702260E-004
                   124  9.694804060193019E-005
                   125  7.415135256731673E-004
                   126 -5.147413569681027E-004
                   127 -4.526932899389967E-005
                   128 -1.240951705718663E-005
                   129  4.843983714729820E-004
                   130 -2.158934410183339E-005
                   131  1.963712555810443E-004
                   132  2.265080872525077E-003
                   133  1.259800788165953E-004
                   134  2.952977774893606E-004
                   135  2.187183734049389E-005
                   136  1.678482868135951E-006
                   137 -4.267713039971340E-006
                   138 -1.181450559868441E-005
                   139  9.317465428372360E-006
                   140  2.067985745053778E-004
                   141  3.122566715513951E-004
                   142  8.344655150477348E-006
                   143 -3.253086441034908E-004
                   144 -2.422801223250250E-005
                   145 -2.848744047272325E-005
                   146 -2.002455986072625E-005
                   147  2.576003388200895E-007
                   148 -1.020780648525474E-005
                   149 -3.369504224217966E-006
                   150 -7.092365952579824E-005
                   151 -9.843279014301279E-007
                   152 -1.418980467145690E-004
                   153 -1.933380311123219E-004
                   154 -1.279979380701913E-006
                   155  4.731655492369053E-004
                   156 -4.460954429936822E-004
                   157 -3.792217133516748E-005
                   158 -5.451152896228934E-005
                   159 -7.044343439925404E-005
                   160 -3.195314241293321E-005
                   161  1.774650784130793E-004
                   162 -5.785370527407186E-004
                   163  8.242965695044547E-005
                   164  7.949046511320112E-004
                   165 -1.200447587230848E-005
                   166  5.719255808515815E-006
                   167  2.948673145062531E-006
                   168  1.193819813939197E-005
                   169  6.659576775966049E-006
                   170 -4.914317461757767E-005
                   171 -7.613370592471464E-005
                   172  1.657614794341132E-006
                   173 -3.132860399230294E-005
                   174  2.437720133199747E-006
                   175 -5.374712715560377E-006
                   176 -8.950030657352600E-006
                   177  2.307723418343755E-006
                   178 -2.350573609041706E-006
                   179  4.319388740587150E-007
                   180 -1.614719287977524E-005
                   181 -3.591738991473592E-006
                   182 -1.390032247294507E-004
                   183 -4.304011237171912E-004
                   184  3.163522976673099E-005
                   185  1.751079461897790E-004
                   186 -1.785196483891198E-005
                   187 -3.616244463603570E-005
                   188 -6.553391986717276E-005
                   189  9.093304036015590E-005
                   190  1.058869461108251E-005
                   191  2.861276142819647E-004
                   192 -3.926979175138595E-004
                   193 -1.223600290738011E-004
                   194  1.561802840521078E-003
                   195 -8.797425854427574E-006
                   196  2.667336904035821E-006
                   197  1.080815987187807E-008
                   198  3.226173652349854E-006
                   199 -1.259430432773792E-006
                   200 -1.226994517607289E-004
                   201 -2.352325711775363E-004
                   202  4.358990598611333E-006
                   203  6.558287570455962E-005
                   204  1.875628790463466E-005
                   205  2.779562924961826E-006
                   206  1.781316003210686E-006
                   207  1.784847394842447E-006
                   208  1.861196721043502E-005
                   209 -9.304370951207050E-007
                   210 -5.151179872508998E-006
                   211 -2.571592032849028E-006
                   212  2.097586656825826E-003
                   213 -1.872175654273148E-003
                   214  1.424604881442300E-004
                   215  3.863586660742241E-004
                   216  1.594096276232683E-004
                   217  2.582092951009116E-003
                   218 -2.105676815476367E-003
                   219  1.833948691409190E-004
                   220  1.086789738568532E-004
                   221 -4.692829231760312E-004
                   222 -5.044560752832043E-004
                   223 -2.541061273203904E-004
                   224 -8.224271615858911E-005
                   225  7.518713811316157E-006
                   226  3.568362499614105E-005
                   227 -3.929428940944925E-004
                   228 -4.088411638397875E-004
                   229 -4.115265448451093E-005
                   230  1.369944052886455E-005
                   231 -4.547653579858116E-005
                   232 -5.420525132630207E-005
                   233 -6.205151698215586E-004
                   234 -1.480362657768256E-007
                   235 -1.088195395511197E-006
                   236 -1.806241273695358E-006
                   237 -1.341240463402115E-004
                   238 -3.262549187696733E-004
                   239  1.403150695204756E-005
                   240 -2.891803337567018E-006
                   241  1.740044980108002E-005
                   242  4.755828420409780E-006
                   243  1.171191288664756E-004
                   244  3.001429138855490E-005
                   245  1.760446280148348E-006
                   246  1.565909139912154E-006
 Sym= __2_A__
 Ene=  0.000000000000000E+000
 Spin= Alpha
 Occup=    2.00000000000000     
                     1 -1.233845638402086E-005
                     2 -8.479872221552584E-005
                     3  1.837745070524667E-003
                     4 -1.723047677830048E-005
                     5  1.218399283702146E-003
                     6  1.796623865134236E-003
                     7  1.598416308906781E-004
                     8 -1.955399576213882E-004
                     9 -1.530916693040736E-004
                    10  1.008064883443856E-004
                    11 -2.267782272131563E-005
                    12  9.519189117592511E-005
                    13  9.933164073478691E-005
                    14  5.876773555179976E-005
                    15 -6.730609160792612E-005
                    16  1.234107825140180E-005
                    17 -8.309980115800958E-006
                    18  4.304586432840076E-005
                    19 -1.646748575378519E-006
                    20  1.531142757942384E-004
                    21 -6.446507003405234E-005
                    22  3.019653585909453E-005
                    23  1.116396261036339E-004
                    24 -5.572196023795267E-005
                    25 -5.642986510335810E-005
                    26  1.335950834175446E-004
                    27 -2.343086612853278E-005
                    28 -4.663209960891880E-006
                    29 -3.376453799683533E-007
                    30  1.278899053937597E-004
                    31  3.512949281543091E-005
                    32   1.00094487915487     
                    33  8.751889683020538E-003
                    34  2.805954314020747E-003
                    35 -8.286074946796755E-003
                    36 -2.415384791645735E-003
                    37  5.903815754135334E-004
                    38  2.143178677116182E-005
                    39  1.091798713300159E-003
                    40 -2.047280839997464E-004
                    41 -1.046952890483621E-004
                    42  3.260252456748693E-003
                    43 -1.135098721719018E-004
                    44 -1.791350288830585E-004
                    45  3.006350817143807E-004
                    46  1.837143326520755E-005
                    47 -1.870773044707660E-005
                    48  3.967422289549258E-004
                    49 -1.504894609941832E-005
                    50 -1.023974396464800E-003
                    51 -1.467907664309372E-004
                    52  7.513702774924542E-005
                    53 -1.312219252498147E-004
                    54  2.178151027602161E-005
                    55 -9.971336380399162E-006
                    56  2.991006098778000E-004
                    57 -8.957355642468436E-006
                    58 -1.499906742071002E-005
                    59 -5.339618199438291E-006
                    60  7.721098631882615E-005
                    61  1.488372913666642E-005
                    62  1.301802258054187E-002
                    63 -1.840216069341843E-003
                    64 -2.900796413995549E-004
                    65  3.008124097091596E-003
                    66 -1.512295749690877E-004
                    67  8.569417078212524E-005
                    68  2.881652420099302E-004
                    69  3.278793171284747E-005
                    70 -1.416587181113996E-005
                    71  4.201819305918017E-004
                    72  3.859596696512518E-004
                    73  5.282288306350470E-005
                    74 -1.841872130011380E-003
                    75 -8.352058212721103E-006
                    76  2.598447421589609E-005
                    77  8.371487766749020E-006
                    78 -3.852491102429304E-005
                    79 -4.005282837285885E-006
                    80 -4.553448677862894E-004
                    81 -4.245136094408134E-004
                    82  1.073799493164730E-005
                    83  7.821579156370506E-004
                    84  5.562222343124594E-006
                    85  4.672911679547844E-005
                    86  1.103428943599670E-004
                    87  9.325039426718941E-006
                    88 -1.699777330829386E-005
                    89 -1.427338300437357E-005
                    90 -2.515471701008499E-005
                    91  2.827890053521990E-006
                    92  1.429420872013045E-002
                    93 -1.764100354136745E-003
                    94 -3.337313209952041E-004
                    95  3.242992835017908E-003
                    96 -1.864566107782325E-004
                    97  1.085661344050987E-004
                    98 -2.769559359272849E-004
                    99 -7.619999499896330E-006
                   100  2.625876606727357E-005
                   101 -6.184164605265641E-004
                   102  1.859018028965264E-005
                   103 -7.698111595489976E-005
                   104  1.742320703434024E-003
                   105 -3.655492457419498E-006
                   106 -1.851486960458383E-005
                   107 -4.047092393915291E-006
                   108 -3.326990858309818E-005
                   109 -3.753679485397601E-006
                   110 -3.554065801261950E-004
                   111  4.889898597748331E-004
                   112 -1.031590856314814E-005
                   113  7.175681218269160E-004
                   114 -1.245952429256674E-005
                   115 -5.155657932828683E-005
                   116  9.934757537772349E-005
                   117 -3.870749439741368E-006
                   118  1.975448580101668E-005
                   119 -1.732908911466220E-007
                   120 -3.293787521013159E-005
                   121  4.352594703237058E-006
                   122 -1.438841658932678E-004
                   123 -7.537765254085463E-004
                   124  2.427971446580247E-004
                   125 -2.747398342821780E-004
                   126 -1.808291595264485E-004
                   127  2.080756053818287E-005
                   128 -5.180545850250358E-005
                   129  6.058511554827504E-004
                   130 -9.434603269237797E-006
                   131  7.563668120170213E-005
                   132  7.118948996737984E-004
                   133 -1.136770815808587E-005
                   134  4.047224679495022E-004
                   135  2.630929872633340E-007
                   136  4.111940217469901E-005
                   137  4.849322312101523E-007
                   138 -3.263693973729446E-005
                   139 -2.481957539507522E-006
                   140  1.979988354831436E-004
                   141 -2.609916596853908E-004
                   142  1.793480198948494E-006
                   143 -2.566143218775414E-004
                   144  7.944843945351316E-006
                   145 -1.812280880657554E-005
                   146  1.543042049060012E-005
                   147 -1.094924523965151E-006
                   148 -1.127371173259415E-005
                   149 -2.859374505436595E-006
                   150 -2.273121336328363E-005
                   151  4.348182876800795E-007
                   152 -1.121139245141281E-004
                   153 -7.099592855775846E-004
                   154  2.550650033347017E-004
                   155 -3.358339613141525E-004
                   156 -1.650911131113114E-004
                   157  7.770190637387292E-006
                   158  3.427940609634741E-005
                   159  5.711893002818735E-004
                   160  7.114415464243050E-006