===========================================================
===                   runc                              ===
===           version 7.0.2 , April 2021              ===
===          requires COLUMBUS version Col_7.0.2        ===
===                                                     ===
===   written by: Thomas Mueller                        ===
===   gradient ext. by: Michal Dallos                   ===
===               University of Vienna                  ===
===   maintained by: Felix Plasser                      ===
===               Loughborough University               ===
===========================================================


coremem. (seq.): 200000 MB,  coremem. (par.): 19000 MB
Vdisk size: 0 DP
Reading job control file control.run ... 
 ****** This is an 2c-QDPT MRCISD calculation ****** 
 model space size=4:0:4
SMOLCAS=/home-4/yshen57@jhu.edu/Software/Chemistry/Columbus-7.0.2_OpenMolcas-18.09-col/OpenMolcas/build
Found serial Molcas Installation at /home-4/yshen57@jhu.edu/Software/Chemistry/Columbus-7.0.2_OpenMolcas-18.09-col/OpenMolcas/build
  done 
INFO: keywords nadcoupl and seward are supported for DCI mode only!
seward specified, using also alaska
Creating various directories ... 
 done 
SMOLCAS=/home-4/yshen57@jhu.edu/Software/Chemistry/Columbus-7.0.2_OpenMolcas-18.09-col/OpenMolcas/build
PMOLCAS=
Checking for illegal keywords and keyword combinations ... done 

 Nonadiabatic coupling term calculation type: DCI+DCSF
  States involved in calcualtion:
   DRT1,state1;  DRT1,state2
   DRT1,state1;  DRT1,state3
   DRT1,state1;  DRT1,state4
   DRT1,state2;  DRT1,state3
   DRT1,state2;  DRT1,state4
   DRT1,state3;  DRT1,state4
   DRT2,state1;  DRT2,state2
   DRT2,state1;  DRT2,state3
   DRT2,state1;  DRT2,state4
   DRT2,state2;  DRT2,state3
   DRT2,state2;  DRT2,state4
   DRT2,state3;  DRT2,state4

Additional gradients computed:
   DRT1,state1
   DRT1,state2
   DRT1,state3
   DRT1,state4
   DRT2,state1
   DRT2,state2
   DRT2,state3
   DRT2,state4

Checking for complete set of input files ... 
mcscf calculation without preceeding scf calculation 
will use 
 /scratch/users/yshen57@jhu.edu/Molcas/fast/0.9/mrci/mocoef as starting MOs 
Performing coupled non-rel. SO-CI calculation, nrroots: 4 0 4
starting cidrt.x   -m 200000 < cidrtin > temp at Fri May 13 14:33:46 EDT 2022

 -------------------- cidrt.x ------------------------
 spatial symmetry:  
 total number of configurations          0
 number of reference configurations     0
 --------------------------------------------------- 
 Preparing SO cidrtin files for 1 symmetries
cat ../cidrtin | sed -e 's/^.*input the molecular spatial symmetry/1 \/ molsym/' > cidrtin.so_A 
calling cidrt.x -m 200000 < cidrtin.so_A > cidrtls.soci_A ...
Checking the DRTs for consistency ...
calling reindex.x -i 1 -m 200000  ...
done

 ++++++++++++++++++ input file generation +++++++++++++ 
 runc start: Fri May 13 14:34:06 EDT 2022
 
  runc start: Fri May 13 14:34:06 EDT 2022
 
 starting unik.gets.x > unikls at Fri May 13 14:34:06 EDT 2022

 -------------------- unik.gets.x ------------------------
 --------------------------------------------------- 
 ++++++++++++++++++++ ao integral calculation ++++++++++++++++
starting pymolcas molcas.input.seward > molcas.output.seward  at Fri May 13 14:34:06 EDT 2022

Generating link ln -s ./molcas.OrdInt ORDINT 
 -------------------- seward ------------------------
      Basis set label: N.ANILINE.........
      Basis set label: C.ANILINE.........
      Basis set label: H.ANILINE.........
  Nuclear Coordinates in                   atomic units                                   Angstrom 
     Center  Label                x              y              z                     x              y              z
        1      N1               0.000000      -0.002614      -4.282636              0.000000      -0.001383      -2.266273
        2      C2               0.000000      -0.001264      -1.776091              0.000000      -0.000669      -0.939867
        3      C3               0.000000      -2.340942      -0.411305              0.000000      -1.238773      -0.217653
        4      C4               0.000000       2.337483      -0.414063              0.000000       1.236943      -0.219113
        5      C5               0.000000      -2.300451       2.162577              0.000000      -1.217346       1.144387
        6      C6               0.000000       2.301147       2.160055              0.000000       1.217714       1.143052
        7      C7               0.000000       0.001063       3.472100              0.000000       0.000562       1.837356
        8      H8               0.000000      -1.438215      -5.194563              0.000000      -0.761071      -2.748844
        9      H9               0.000000       1.667673      -5.263727              0.000000       0.882495      -2.785444
       10      H10              0.000000      -4.076200      -1.445319              0.000000      -2.157032      -0.764830
       11      H11              0.000000       4.071901      -1.449992              0.000000       2.154757      -0.767303
       12      H12              0.000000      -4.040919       3.197183              0.000000      -2.138362       1.691877
       13      H13              0.000000       4.043664       3.191751              0.000000       2.139815       1.689002
       14      H14              0.000000       0.002024       5.498551              0.000000       0.001071       2.909708
 
            Nuclear Potential Energy            273.64854997 au
 --------------------------------------------------- 
  >>>>>>>>>>>>> info: preparing drt no 1 out of 1 <<<<<<
starting mcdrt.x -m 200000 < mcdrtin > mcdrtls at Fri May 13 14:38:00 EDT 2022

 -------------------- mcdrt.x ------------------------
  Spin multiplicity: singlet 
  Spatial symmetry (#): 1
  Number of Configurations:       1275 
  --------------------------------------------------- 
 starting mcuft.x at Fri May 13 14:38:01 EDT 2022

 -------------------- mcuft.x ------------------------
 --------------------------------------------------- 
 ++++++++++++++++++++ MCSCF calculation +++++++++++++++
info: taking mocoef file from /scratch/users/yshen57@jhu.edu/Molcas/fast/0.9/mrci/mocoef
adding flag 30 to mcscfin
Writing mcdenin files for mcscf.x for 1 DRTs
adding flag 26 to mcscfin
starting mcscf.x -m 200000 at Fri May 13 14:38:01 EDT 2022

 -------------------- mcscf.x ------------------------
 Individual total energies for all states: 
    DRT #1 state # 1 wt 0.250 total energy=     -285.886125198, rel. (eV)=   0.000000
    DRT #1 state # 2 wt 0.250 total energy=     -285.702333057, rel. (eV)=   5.001241
    DRT #1 state # 3 wt 0.250 total energy=     -285.662953937, rel. (eV)=   6.072802
    DRT #1 state # 4 wt 0.250 total energy=     -285.620927817, rel. (eV)=   7.216391
  --------------------------------------------------- 
 starting mcpc.x -m 200000 < mcpcin > mcpcls at Fri May 13 14:40:28 EDT 2022

 -------------------- mcpc.x ------------------------
 --------------------------------------------------- 
 starting mcpc.x -m 200000 < mcpcin > mcpcls at Fri May 13 14:40:32 EDT 2022

 -------------------- mcpc.x ------------------------
 --------------------------------------------------- 
 starting mcpc.x -m 200000 < mcpcin > mcpcls at Fri May 13 14:40:32 EDT 2022

 -------------------- mcpc.x ------------------------
 --------------------------------------------------- 
 starting mcpc.x -m 200000 < mcpcin > mcpcls at Fri May 13 14:40:32 EDT 2022

 -------------------- mcpc.x ------------------------
 --------------------------------------------------- 
 
========= state properties for state-averaged MCSCF =========
mcscf.drt1.st01.sp
starting exptvl.x -m 200000   at Fri May 13 14:40:33 EDT 2022

 -------------------- exptvl.x ------------------------
  === dipole moment === 
                     X               Y               Z   
   orign x       0.00000000      0.00000000      0.00000000
   orign y       0.00000000      0.00000000      0.00000000
   orign z       0.00000000      0.00000000      0.00000000
   nuclear       0.00000000      0.19384418     -0.28492040
   electronic   -0.00000000     -0.14774174     -0.76690338
   total        -0.00000000      0.04610244     -1.05182378
   total Dipole moment =   2.67603888    Debye
 --------------------------------------------------- 
 mcscf.drt1.st02.sp
starting exptvl.x -m 200000   at Fri May 13 14:40:33 EDT 2022

 -------------------- exptvl.x ------------------------
  === dipole moment === 
                     X               Y               Z   
   orign x       0.00000000      0.00000000      0.00000000
   orign y       0.00000000      0.00000000      0.00000000
   orign z       0.00000000      0.00000000      0.00000000
   nuclear       0.00000000      0.19384418     -0.28492040
   electronic   -0.00000000     -0.17221171      3.79197511
   total        -0.00000000      0.02163247      3.50705471
   total Dipole moment =   8.91422238    Debye
 --------------------------------------------------- 
 mcscf.drt1.st03.sp
starting exptvl.x -m 200000   at Fri May 13 14:40:33 EDT 2022

 -------------------- exptvl.x ------------------------
  === dipole moment === 
                     X               Y               Z   
   orign x       0.00000000      0.00000000      0.00000000
   orign y       0.00000000      0.00000000      0.00000000
   orign z       0.00000000      0.00000000      0.00000000
   nuclear       0.00000000      0.19384418     -0.28492040
   electronic   -0.00000000     -0.14748018     -1.17958058
   total        -0.00000000      0.04636400     -1.46450098
   total Dipole moment =   3.72425885    Debye
 --------------------------------------------------- 
 mcscf.drt1.st04.sp
starting exptvl.x -m 200000   at Fri May 13 14:40:33 EDT 2022

 -------------------- exptvl.x ------------------------
  === dipole moment === 
                     X               Y               Z   
   orign x       0.00000000      0.00000000      0.00000000
   orign y       0.00000000      0.00000000      0.00000000
   orign z       0.00000000      0.00000000      0.00000000
   nuclear       0.00000000      0.19384418     -0.28492040
   electronic   -0.00000000     -0.17692673      4.50084212
   total        -0.00000000      0.01691745      4.21592172
   total Dipole moment =  10.71590109    Debye
 --------------------------------------------------- 
  using the MCSCF MOs ... 
starting cidrt.x  -m 200000 < cidrtin.1 > cidrtls at Fri May 13 14:40:34 EDT 2022

 -------------------- cidrt.x ------------------------
 total number of orbitals            :   246
 number of frozen core orbitals      :    18
 number of frozen virtual orbitals   :     0
 number of internal orbitals         :    14
 number of external orbitals         :   214
 spatial symmetry:   a  
 
 total number of configurations  158587185
 number of reference configurations  1275
 --------------------------------------------------- 
 starting cidrt.x  -m 200000 < cidrtin.2 > cidrtls at Fri May 13 14:40:36 EDT 2022

 -------------------- cidrt.x ------------------------
 total number of orbitals            :   246
 number of frozen core orbitals      :    18
 number of frozen virtual orbitals   :     0
 number of internal orbitals         :    14
 number of external orbitals         :   214
 spatial symmetry:   a  
 
 total number of configurations  282461366
 number of reference configurations  1666
 --------------------------------------------------- 
 starting tran.x -m 200000  at Fri May 13 14:40:40 EDT 2022

 -------------------- tran.x ------------------------
 --------------------------------------------------- 
  Starting ciudgav with DRT # 1 out of 2 

 *** starting pciudg section *** 
nproc: 48 machinefile:  
assuming machinefile syntax: one host name per line optionally repeated
 section2, MPI_STARTUP:
 /software/apps/mpi/openmpi/3.1/intel/18.0/bin/mpirun -np 48  /home-4/yshen57@jhu.edu/Software/Chemistry/Columbus-7.0.2_OpenMolcas-18.09-col/Columbus/pciudg.x -m 19000 
 -------------------- pciudg.x ------------------------
 type of calculation:          mr-sdci
 number of configurations:     158587185
 total mr-sdci energy             -286.0822443543 
 last mr-sdci energy change           0.0000000000 
 residual                             0.0000077431 
  type of calculation:          mr-sdci
 number of configurations:     158587185
 total mr-sdci energy             -285.9294422935 
 last mr-sdci energy change           0.0000000000 
 residual                             0.0000050183 
  type of calculation:          mr-sdci
 number of configurations:     158587185
 total mr-sdci energy             -285.9032174259 
 last mr-sdci energy change          -0.0000000000 
 residual                             0.0000095829 
  type of calculation:          mr-sdci
 number of configurations:     158587185
 total mr-sdci energy             -285.8518306071 
 last mr-sdci energy change           0.0000000000 
 residual                             0.0000050457 
  --------------------------------------------------- 
 keyinfile returned docipci=0:
starting cipc.x -m 200000 < cipcin > cipcls at Sat May 14 06:20:02 EDT 2022

 -------------------- cipc.x ------------------------
 --------------------------------------------------- 
  Starting ciudgav with DRT # 2 out of 2 

 *** starting pciudg section *** 
nproc: 48 machinefile:  
assuming machinefile syntax: one host name per line optionally repeated
 section2, MPI_STARTUP:
 /software/apps/mpi/openmpi/3.1/intel/18.0/bin/mpirun -np 48  /home-4/yshen57@jhu.edu/Software/Chemistry/Columbus-7.0.2_OpenMolcas-18.09-col/Columbus/pciudg.x -m 19000 
 -------------------- pciudg.x ------------------------
 type of calculation:          mr-sdci
 number of configurations:     282461366
 total mr-sdci energy             -285.9345188043 
 last mr-sdci energy change           0.0000000000 
 residual                             0.0000070060 
  type of calculation:          mr-sdci
 number of configurations:     282461366
 total mr-sdci energy             -285.9313650089 
 last mr-sdci energy change           0.0000000002 
 residual                             0.0000092518 
  type of calculation:          mr-sdci
 number of configurations:     282461366
 total mr-sdci energy             -285.9223029194 
 last mr-sdci energy change          -0.0000000000 
 residual                             0.0000074960 
  type of calculation:          mr-sdci
 number of configurations:     282461366
 total mr-sdci energy             -285.8935903295 
 last mr-sdci energy change          -0.0000000000 
 residual                             0.0000052945 
  --------------------------------------------------- 
 keyinfile returned docipci=0:
starting cipc.x -m 200000 < cipcin > cipcls at Sun May 15 17:34:49 EDT 2022

 -------------------- cipc.x ------------------------
 --------------------------------------------------- 
 Reindex call
run_socinr: imult=1 irrep=1 
opening file =ciudgls.drt1.sp
opening file =ciudgls.drt1.sp
opening file =ciudgls.drt1.sp
opening file =ciudgls.drt1.sp
run_socinr: imult=3 irrep=1 
opening file =ciudgls.drt2.sp
opening file =ciudgls.drt2.sp
opening file =ciudgls.drt2.sp
opening file =ciudgls.drt2.sp
 copying /scratch/users/yshen57@jhu.edu/Molcas/fast/0.9/mrci/cidrtfl.so__A --> cidrtfl.so__A 
 copying /scratch/users/yshen57@jhu.edu/Molcas/fast/0.9/mrci/cidrtfl.so__A --> cidrtfl.so__A 
starting reindex.x -m 200000 > reindexls at Sun May 15 17:35:11 EDT 2022

 -------------------- reindex.x ------------------------
 --------------------------------------------------- 
 1      1        1           civfl_1_A             1      1    0+       1             1         civfl.so__A
1      1        2           civfl_1_A             1      1    0+       2    1005971284         civfl.so__A
1      1        3           civfl_1_A             1      1    0+       3    2011942567         civfl.so__A
1      1        4           civfl_1_A             1      1    0+       4    3017913850         civfl.so__A
3      1        1           civfl_3_A             1      3    0+       5    4023885133         civfl.so__A
3      1        1           civfl_3_A             1      3    1+       6    5029856416         civfl.so__A
3      1        1           civfl_3_A             1      3    1-       7    6035827699         civfl.so__A
3      1        2           civfl_3_A             1      3    0+       8    7041798982         civfl.so__A
3      1        2           civfl_3_A             1      3    1+       9    8047770265         civfl.so__A
3      1        2           civfl_3_A             1      3    1-      10    9053741548         civfl.so__A
3      1        3           civfl_3_A             1      3    0+      11   10059712831         civfl.so__A
3      1        3           civfl_3_A             1      3    1+      12   11065684114         civfl.so__A
3      1        3           civfl_3_A             1      3    1-      13   12071655397         civfl.so__A
3      1        4           civfl_3_A             1      3    0+      14   13077626680         civfl.so__A
3      1        4           civfl_3_A             1      3    1+      15   14083597963         civfl.so__A
3      1        4           civfl_3_A             1      3    1-      16   15089569246         civfl.so__A
 Executing ciudg.x  for gamma =A ...

 *** starting pciudg section *** 
nproc: 48 machinefile:  
assuming machinefile syntax: one host name per line optionally repeated
 section2, MPI_STARTUP:
 /software/apps/mpi/openmpi/3.1/intel/18.0/bin/mpirun -np 48  /home-4/yshen57@jhu.edu/Software/Chemistry/Columbus-7.0.2_OpenMolcas-18.09-col/Columbus/pciudg.x -m 19000 
 -------------------- pciudg.x ------------------------
 type of calculation:          mr-sdci
 number of configurations:     1005971283
 total mr-sdci energy             -286.0822443566 
 last mr-sdci energy change           0.0000000023 
 residual                            36.8390000000 
  type of calculation:          mr-sdci
 number of configurations:     1005971283
 total mr-sdci energy             -285.9345188638 
 last mr-sdci energy change           0.0050766000 
 residual                            36.6920000000 
  type of calculation:          mr-sdci
 number of configurations:     1005971283
 total mr-sdci energy             -285.9345188637 
 last mr-sdci energy change           0.0313010000 
 residual                            36.6920000000 
  type of calculation:          mr-sdci
 number of configurations:     1005971283
 total mr-sdci energy             -285.9345188370 
 last mr-sdci energy change           0.0826880000 
 residual                            36.6920000000 
  type of calculation:          mr-sdci
 number of configurations:     1005971283
 total mr-sdci energy             -285.9313650069 
 last mr-sdci energy change          -0.0031538000 
 residual                            36.6880000000 
  type of calculation:          mr-sdci
 number of configurations:     1005971283
 total mr-sdci energy             -285.9313649499 
 last mr-sdci energy change          -0.0031539000 
 residual                            36.6880000000 
  type of calculation:          mr-sdci
 number of configurations:     1005971283
 total mr-sdci energy             -285.9313649498 
 last mr-sdci energy change          -0.0031539000 
 residual                            36.6880000000 
  type of calculation:          mr-sdci
 number of configurations:     1005971283
 total mr-sdci energy             -285.9294422613 
 last mr-sdci energy change          -0.0019227000 
 residual                            36.6870000000 
  type of calculation:          mr-sdci
 number of configurations:     1005971283
 total mr-sdci energy             -285.9223029196 
 last mr-sdci energy change          -0.0090621000 
 residual                            36.6790000000 
  type of calculation:          mr-sdci
 number of configurations:     1005971283
 total mr-sdci energy             -285.9223029191 
 last mr-sdci energy change          -0.0090621000 
 residual                            36.6790000000 
  type of calculation:          mr-sdci
 number of configurations:     1005971283
 total mr-sdci energy             -285.9223029191 
 last mr-sdci energy change          -0.0000000003 
 residual                            36.6790000000 
  type of calculation:          mr-sdci
 number of configurations:     1005971283
 total mr-sdci energy             -285.9032174257 
 last mr-sdci energy change          -0.0190850000 
 residual                            36.6600000000 
  type of calculation:          mr-sdci
 number of configurations:     1005971283
 total mr-sdci energy             -285.8935903294 
 last mr-sdci energy change          -0.0287130000 
 residual                            36.6510000000 
  type of calculation:          mr-sdci
 number of configurations:     1005971283
 total mr-sdci energy             -285.8935903294 
 last mr-sdci energy change          -0.0000000001 
 residual                            36.6510000000 
  type of calculation:          mr-sdci
 number of configurations:     1005971283
 total mr-sdci energy             -285.8935903293 
 last mr-sdci energy change          -0.0000000002 
 residual                            36.6510000000 
  type of calculation:          mr-sdci
 number of configurations:     1005971283
 total mr-sdci energy             -285.8518306066 
 last mr-sdci energy change          -0.0417600000 
 residual                            36.6090000000 
  --------------------------------------------------- 
 ************* Results for Spin-Orbit CI gamma=A **************** 
Final spin-orbit CI state energies: 


-------------- HT matrix in AU ----------------  
-36.839361    
 0.000000    -36.686558    
 0.000000     0.000000    -36.660334    
 0.000000     0.000000     0.000000    -36.608947    
 0.000000    -0.000004     0.000000     0.000002    -36.691635    
-0.000000    -0.000012     0.000000    -0.000000    -0.000000    -36.691635    
 0.000000     0.000000     0.000000    -0.000000    -0.000000    -0.000000    -36.691635    
 0.000007    -0.000000     0.000002    -0.000000     0.000000    -0.000000    -0.000013    -36.688481    
 0.000017    -0.000000    -0.000000    -0.000000     0.000000     0.000000     0.000004     0.000000    -36.688481    
-0.000000     0.000000     0.000000     0.000000     0.000013    -0.000004     0.000000     0.000000    -0.000000    -36.688481    
 0.000000     0.000002    -0.000000    -0.000002     0.000000     0.000000    -0.000000     0.000000     0.000000     0.000000    -36.679419    
 0.000000    -0.000000     0.000000    -0.000005    -0.000000     0.000000     0.000000    -0.000000     0.000000     0.000002     0.000000    -36.679419    
 0.000000     0.000000    -0.000000     0.000000     0.000000    -0.000000     0.000000    -0.000000    -0.000002     0.000000     0.000000     0.000000    -36.679419    
-0.000000     0.000001     0.000000     0.000001     0.000000    -0.000000     0.000000     0.000000    -0.000000    -0.000002     0.000000     0.000000    -0.000000    -36.650707    
 0.000000     0.000002     0.000000    -0.000000     0.000000     0.000000     0.000000     0.000000     0.000000     0.000001    -0.000000     0.000000    -0.000000     0.000000    -36.650707    
-0.000000    -0.000000    -0.000000     0.000000    -0.000000    -0.000000     0.000000     0.000002    -0.000001     0.000000     0.000000     0.000000     0.000000     0.000000     0.000000    -36.650707    
-------------- HT matrix in eV ---------------- 
-1002.450   
    0.000    -998.292   
    0.000       0.000    -997.578   
    0.000       0.000       0.000    -996.180   
    0.000      -0.000       0.000       0.000    -998.430   
   -0.000      -0.000       0.000      -0.000      -0.000    -998.430   
    0.000       0.000       0.000      -0.000      -0.000      -0.000    -998.430   
    0.000      -0.000       0.000      -0.000       0.000      -0.000      -0.000    -998.344   
    0.000      -0.000      -0.000      -0.000       0.000       0.000       0.000       0.000    -998.344   
   -0.000       0.000       0.000       0.000       0.000      -0.000       0.000       0.000      -0.000    -998.344   
    0.000       0.000      -0.000      -0.000       0.000       0.000      -0.000       0.000       0.000       0.000    -998.098   
    0.000      -0.000       0.000      -0.000      -0.000       0.000       0.000      -0.000       0.000       0.000       0.000    -998.098   
    0.000       0.000      -0.000       0.000       0.000      -0.000       0.000      -0.000      -0.000       0.000       0.000       0.000    -998.098   
   -0.000       0.000       0.000       0.000       0.000      -0.000       0.000       0.000      -0.000      -0.000       0.000       0.000      -0.000    -997.316   
    0.000       0.000       0.000      -0.000       0.000       0.000       0.000       0.000       0.000       0.000      -0.000       0.000      -0.000       0.000    -997.316   
   -0.000      -0.000      -0.000       0.000      -0.000      -0.000       0.000       0.000      -0.000       0.000       0.000       0.000       0.000       0.000       0.000    -997.316   
-------------- HT matrix in cm-1 ------------------- 
Eref = -36.83936054
     0.00   
     0.00    33536.23   
     0.00        0.00    39291.94   
     0.00        0.00        0.00    50570.06   
     0.00       -0.78        0.00        0.33    32422.07   
     0.00       -2.71        0.00       -0.01        0.00    32422.07   
     0.00        0.00        0.01        0.00        0.00        0.00    32422.07   
     1.52        0.00        0.47        0.00        0.00        0.00       -2.89    33114.24   
     3.80        0.00       -0.05        0.00        0.00        0.00        0.83        0.00    33114.24   
     0.00        0.00        0.00        0.03        2.89       -0.83        0.00        0.00        0.00    33114.24   
     0.00        0.34        0.00       -0.35        0.00        0.02        0.00        0.00        0.00        0.05    35103.15   
     0.00       -0.06        0.00       -1.20       -0.02        0.00        0.00        0.00        0.00        0.35        0.00    35103.15   
     0.00        0.00        0.00        0.00        0.00        0.00        0.00       -0.05       -0.35        0.00        0.00        0.00    35103.15   
     0.00        0.15        0.00        0.32        0.00        0.00        0.00        0.00        0.00       -0.51        0.00        0.00        0.00    41404.84   
     0.00        0.47        0.00       -0.08        0.00        0.00        0.00        0.00        0.00        0.16       -0.00        0.00        0.00        0.00    41404.84   
     0.00        0.00        0.00        0.00        0.00        0.00        0.00        0.51       -0.16        0.00        0.00        0.00        0.00        0.00        0.00    41404.84   


Spin-Orbit CI: perturbational estimate of Spin-Orbit CI energies and wavefunctions 
                SO   1         SO   2         SO   3         SO   4         SO   5         SO   6         SO   7         SO   8

   energy  -286.08224436  -285.93451886  -285.93451886  -285.93451884  -285.93136501  -285.93136495  -285.93136495  -285.92944226
 
   NR   1     0.99999999     0.00000000    -0.00000012    -0.00000000    -0.00012300     0.00000000    -0.00001279    -0.00000000
   NR   2     0.00000000     0.00000453     0.00000000     0.00253654    -0.00000000    -0.00001286    -0.00000000     0.99999676
   NR   3     0.00000000     0.00000000     0.00000207    -0.00000000     0.00001283     0.00000000     0.00007589     0.00000000
   NR   4    -0.00000000    -0.00001767    -0.00000000    -0.00000474    -0.00000000    -0.00000171    -0.00000000     0.00000001
   NR   5    -0.00000000     0.96139453     0.00000001     0.27514115     0.00000000     0.00417252    -0.00000000    -0.00070221
   NR   6     0.00000000    -0.27513944    -0.00000004     0.96140049    -0.00000000    -0.00119903     0.00000000    -0.00243741
   NR   7    -0.00000006     0.00000002    -0.99999058    -0.00000004    -0.00001833     0.00000000     0.00434134     0.00000000
   NR   8    -0.00004578     0.00000000    -0.00417250     0.00000000    -0.27213689    -0.00000006    -0.96224950    -0.00000000
   NR   9    -0.00011488    -0.00000000     0.00119908    -0.00000000    -0.96225852     0.00000007     0.27213425    -0.00000000
   NR  10     0.00000000    -0.00434138    -0.00000000     0.00000475     0.00000005     0.99999056    -0.00000008     0.00001286
   NR  11    -0.00000000     0.00000168    -0.00000000    -0.00000590    -0.00000000    -0.00002669     0.00000000    -0.00021602
   NR  12    -0.00000000     0.00000615     0.00000000     0.00000165    -0.00000000    -0.00017798     0.00000000     0.00003698
   NR  13    -0.00000013    -0.00000000     0.00000008    -0.00000000    -0.00017856     0.00000000     0.00002275    -0.00000000
   NR  14     0.00000000    -0.00000025     0.00000000    -0.00000002    -0.00000000     0.00006129    -0.00000000    -0.00001880
   NR  15    -0.00000000     0.00000005     0.00000000    -0.00000014     0.00000000    -0.00001912     0.00000000    -0.00005926
   NR  16     0.00000001     0.00000000     0.00000026     0.00000000    -0.00000172     0.00000000     0.00006418     0.00000000

                SO   9         SO  10         SO  11         SO  12         SO  13         SO  14         SO  15         SO  16

   energy  -285.92230292  -285.92230292  -285.92230292  -285.90321743  -285.89359033  -285.89359033  -285.89359033  -285.85183061
 
   NR   1    -0.00000000    -0.00000011     0.00000000     0.00000000     0.00000000    -0.00000000    -0.00000001    -0.00000000
   NR   2    -0.00002520    -0.00000002    -0.00021773    -0.00000000    -0.00000360    -0.00006207    -0.00000000     0.00000000
   NR   3     0.00000000    -0.00000005     0.00000000     1.00000000     0.00000000    -0.00000000    -0.00000040     0.00000000
   NR   4    -0.00008069     0.00000000     0.00000004     0.00000000     0.00003614    -0.00000016     0.00000000    -1.00000000
   NR   5     0.00000538    -0.00000000    -0.00000154     0.00000000     0.00000003    -0.00000002    -0.00000000    -0.00001830
   NR   6    -0.00000155    -0.00000000    -0.00000536     0.00000000     0.00000002     0.00000003    -0.00000000     0.00000031
   NR   7     0.00000000     0.00000003     0.00000000     0.00000174    -0.00000000    -0.00000000    -0.00000002     0.00000000
   NR   8     0.00000000     0.00002670    -0.00000000     0.00007652     0.00000000    -0.00000000     0.00006129     0.00000000
   NR   9     0.00000000     0.00017802    -0.00000002    -0.00000831     0.00000000     0.00000000    -0.00001912     0.00000000
   NR  10    -0.00017834     0.00000000     0.00002439     0.00000000     0.00006411    -0.00000341     0.00000000    -0.00000162
   NR  11    -0.28093104    -0.00010708    -0.95972793    -0.00000000    -0.00000017     0.00000067     0.00000000     0.00002263
   NR  12    -0.95972794     0.00003204     0.28093104     0.00000000    -0.00000067    -0.00000017     0.00000000     0.00007745
   NR  13    -0.00000067    -0.99999998     0.00011177    -0.00000004     0.00000000     0.00000000     0.00000000    -0.00000000
   NR  14     0.00000065    -0.00000000    -0.00000019    -0.00000000    -0.96909015    -0.24670687    -0.00000000    -0.00003499
   NR  15    -0.00000019    -0.00000000    -0.00000065    -0.00000000     0.24670687    -0.96909015     0.00000003     0.00000907
   NR  16     0.00000000     0.00000000     0.00000000     0.00000039    -0.00000001     0.00000003     1.00000000    -0.00000000
rescaling new expansion vector ... old norm=   4344.6136426931

 model space basis from reindexls .. 
 --SO-CI-------         -----NR-CI-------             ---model space---- 
 Gamma  root             S   irrep   root                S   ms* 
A          1             1   A         1                 1   0+
A          2             1   A         2                 1   0+
A          3             1   A         3                 1   0+
A          4             1   A         4                 1   0+
A          5             3   A         1                 3   0+
A          6             3   A         1                 3   1+
A          7             3   A         1                 3   1-
A          8             3   A         2                 3   0+
A          9             3   A         2                 3   1+
A         10             3   A         2                 3   1-
A         11             3   A         3                 3   0+
A         12             3   A         3                 3   1+
A         13             3   A         3                 3   1-
A         14             3   A         4                 3   0+
A         15             3   A         4                 3   1+
A         16             3   A         4                 3   1-

************************** SUMMARY *********************************

--------------  SO matrix for irrep A in eV ---------------- 
|1,0+;1,A,1> -1002.450   
|1,0+;1,A,2>     0.000    -998.292   
|1,0+;1,A,3>     0.000       0.000    -997.578   
|1,0+;1,A,4>     0.000       0.000       0.000    -996.180   
|3,0+;3,A,1>     0.000      -0.000       0.000       0.000    -998.430   
|3,1+;3,A,1>    -0.000      -0.000       0.000      -0.000      -0.000    -998.430   
|3,1-;3,A,1>     0.000       0.000       0.000      -0.000      -0.000      -0.000    -998.430   
|3,0+;3,A,2>     0.000      -0.000       0.000      -0.000       0.000      -0.000      -0.000    -998.344   
|3,1+;3,A,2>     0.000      -0.000      -0.000      -0.000       0.000       0.000       0.000       0.000    -998.344   
|3,1-;3,A,2>    -0.000       0.000       0.000       0.000       0.000      -0.000       0.000       0.000      -0.000    -998.344   
|3,0+;3,A,3>     0.000       0.000      -0.000      -0.000       0.000       0.000      -0.000       0.000       0.000       0.000    -998.098   
|3,1+;3,A,3>     0.000      -0.000       0.000      -0.000      -0.000       0.000       0.000      -0.000       0.000       0.000       0.000    -998.098   
|3,1-;3,A,3>     0.000       0.000      -0.000       0.000       0.000      -0.000       0.000      -0.000      -0.000       0.000       0.000       0.000    -998.098   
|3,0+;3,A,4>    -0.000       0.000       0.000       0.000       0.000      -0.000       0.000       0.000      -0.000      -0.000       0.000       0.000      -0.000    -997.316   
|3,1+;3,A,4>     0.000       0.000       0.000      -0.000       0.000       0.000       0.000       0.000       0.000       0.000      -0.000       0.000      -0.000       0.000    -997.316   
|3,1-;3,A,4>    -0.000      -0.000      -0.000       0.000      -0.000      -0.000       0.000       0.000      -0.000       0.000       0.000       0.000       0.000       0.000       0.000    -997.316   

--------------  SO matrix for irrep A in cm-1 ------------------- 
Eref = -36.83936054
|1,0+;1,A,1>      0.00   
|1,0+;1,A,2>      0.00    33536.23   
|1,0+;1,A,3>      0.00        0.00    39291.94   
|1,0+;1,A,4>      0.00        0.00        0.00    50570.06   
|3,0+;3,A,1>      0.00       -0.78        0.00        0.33    32422.07   
|3,1+;3,A,1>      0.00       -2.71        0.00       -0.01        0.00    32422.07   
|3,1-;3,A,1>      0.00        0.00        0.01        0.00        0.00        0.00    32422.07   
|3,0+;3,A,2>      1.52        0.00        0.47        0.00        0.00        0.00       -2.89    33114.24   
|3,1+;3,A,2>      3.80        0.00       -0.05        0.00        0.00        0.00        0.83        0.00    33114.24   
|3,1-;3,A,2>      0.00        0.00        0.00        0.03        2.89       -0.83        0.00        0.00        0.00    33114.24   
|3,0+;3,A,3>      0.00        0.34        0.00       -0.35        0.00        0.02        0.00        0.00        0.00        0.05    35103.15   
|3,1+;3,A,3>      0.00       -0.06        0.00       -1.20       -0.02        0.00        0.00        0.00        0.00        0.35        0.00    35103.15   
|3,1-;3,A,3>      0.00        0.00        0.00        0.00        0.00        0.00        0.00       -0.05       -0.35        0.00        0.00        0.00    35103.15   
|3,0+;3,A,4>      0.00        0.15        0.00        0.32        0.00        0.00        0.00        0.00        0.00       -0.51        0.00        0.00        0.00    41404.84   
|3,1+;3,A,4>      0.00        0.47        0.00       -0.08        0.00        0.00        0.00        0.00        0.00        0.16       -0.00        0.00        0.00        0.00    41404.84   
|3,1-;3,A,4>      0.00        0.00        0.00        0.00        0.00        0.00        0.00        0.51       -0.16        0.00        0.00        0.00        0.00        0.00        0.00    41404.84   


 ** perturbational estimate of Spin-Orbit CI energies and wavefunctions in model space basis** 

                      A  1         A  2         A  3         A  4         A  5         A  6         A  7         A  8

            energy  -286.08224436  -285.93451886  -285.93451886  -285.93451884  -285.93136501  -285.93136495  -285.93136495  -285.92944226
          
   |1,0+;1,A,1>     0.99999999     0.00000000    -0.00000012    -0.00000000    -0.00012300     0.00000000    -0.00001279    -0.00000000
   |1,0+;1,A,2>     0.00000000     0.00000453     0.00000000     0.00253654    -0.00000000    -0.00001286    -0.00000000     0.99999676
   |1,0+;1,A,3>     0.00000000     0.00000000     0.00000207    -0.00000000     0.00001283     0.00000000     0.00007589     0.00000000
   |1,0+;1,A,4>    -0.00000000    -0.00001767    -0.00000000    -0.00000474    -0.00000000    -0.00000171    -0.00000000     0.00000001
   |3,0+;3,A,1>    -0.00000000     0.96139453     0.00000001     0.27514115     0.00000000     0.00417252    -0.00000000    -0.00070221
   |3,1+;3,A,1>     0.00000000    -0.27513944    -0.00000004     0.96140049    -0.00000000    -0.00119903     0.00000000    -0.00243741
   |3,1-;3,A,1>    -0.00000006     0.00000002    -0.99999058    -0.00000004    -0.00001833     0.00000000     0.00434134     0.00000000
   |3,0+;3,A,2>    -0.00004578     0.00000000    -0.00417250     0.00000000    -0.27213689    -0.00000006    -0.96224950    -0.00000000
   |3,1+;3,A,2>    -0.00011488    -0.00000000     0.00119908    -0.00000000    -0.96225852     0.00000007     0.27213425    -0.00000000
   |3,1-;3,A,2>     0.00000000    -0.00434138    -0.00000000     0.00000475     0.00000005     0.99999056    -0.00000008     0.00001286
   |3,0+;3,A,3>    -0.00000000     0.00000168    -0.00000000    -0.00000590    -0.00000000    -0.00002669     0.00000000    -0.00021602
   |3,1+;3,A,3>    -0.00000000     0.00000615     0.00000000     0.00000165    -0.00000000    -0.00017798     0.00000000     0.00003698
   |3,1-;3,A,3>    -0.00000013    -0.00000000     0.00000008    -0.00000000    -0.00017856     0.00000000     0.00002275    -0.00000000
   |3,0+;3,A,4>     0.00000000    -0.00000025     0.00000000    -0.00000002    -0.00000000     0.00006129    -0.00000000    -0.00001880
   |3,1+;3,A,4>    -0.00000000     0.00000005     0.00000000    -0.00000014     0.00000000    -0.00001912     0.00000000    -0.00005926
   |3,1-;3,A,4>     0.00000001     0.00000000     0.00000026     0.00000000    -0.00000172     0.00000000     0.00006418     0.00000000

                      A  9         A 10         A 11         A 12         A 13         A 14         A 15         A 16

            energy  -285.92230292  -285.92230292  -285.92230292  -285.90321743  -285.89359033  -285.89359033  -285.89359033  -285.85183061
          
   |1,0+;1,A,1>    -0.00000000    -0.00000011     0.00000000     0.00000000     0.00000000    -0.00000000    -0.00000001    -0.00000000
   |1,0+;1,A,2>    -0.00002520    -0.00000002    -0.00021773    -0.00000000    -0.00000360    -0.00006207    -0.00000000     0.00000000
   |1,0+;1,A,3>     0.00000000    -0.00000005     0.00000000     1.00000000     0.00000000    -0.00000000    -0.00000040     0.00000000
   |1,0+;1,A,4>    -0.00008069     0.00000000     0.00000004     0.00000000     0.00003614    -0.00000016     0.00000000    -1.00000000
   |3,0+;3,A,1>     0.00000538    -0.00000000    -0.00000154     0.00000000     0.00000003    -0.00000002    -0.00000000    -0.00001830
   |3,1+;3,A,1>    -0.00000155    -0.00000000    -0.00000536     0.00000000     0.00000002     0.00000003    -0.00000000     0.00000031
   |3,1-;3,A,1>     0.00000000     0.00000003     0.00000000     0.00000174    -0.00000000    -0.00000000    -0.00000002     0.00000000
   |3,0+;3,A,2>     0.00000000     0.00002670    -0.00000000     0.00007652     0.00000000    -0.00000000     0.00006129     0.00000000
   |3,1+;3,A,2>     0.00000000     0.00017802    -0.00000002    -0.00000831     0.00000000     0.00000000    -0.00001912     0.00000000
   |3,1-;3,A,2>    -0.00017834     0.00000000     0.00002439     0.00000000     0.00006411    -0.00000341     0.00000000    -0.00000162
   |3,0+;3,A,3>    -0.28093104    -0.00010708    -0.95972793    -0.00000000    -0.00000017     0.00000067     0.00000000     0.00002263
   |3,1+;3,A,3>    -0.95972794     0.00003204     0.28093104     0.00000000    -0.00000067    -0.00000017     0.00000000     0.00007745
   |3,1-;3,A,3>    -0.00000067    -0.99999998     0.00011177    -0.00000004     0.00000000     0.00000000     0.00000000    -0.00000000
   |3,0+;3,A,4>     0.00000065    -0.00000000    -0.00000019    -0.00000000    -0.96909015    -0.24670687    -0.00000000    -0.00003499
   |3,1+;3,A,4>    -0.00000019    -0.00000000    -0.00000065    -0.00000000     0.24670687    -0.96909015     0.00000003     0.00000907
   |3,1-;3,A,4>     0.00000000     0.00000000     0.00000000     0.00000039    -0.00000001     0.00000003     1.00000000    -0.00000000
rescaling new expansion vector ... old norm=   4344.6136426931

Sorted Energies:
1  -286.08224436 
2  -285.93451886 
3  -285.93451886 
4  -285.93451884 
5  -285.93136501 
6  -285.93136495 
7  -285.93136495 
8  -285.92944226 
9  -285.92230292 
10  -285.92230292 
11  -285.92230292 
12  -285.90321743 
13  -285.89359033 
14  -285.89359033 
15  -285.89359033 
16  -285.85183061 
Not computing transition moment with identical bra and ket.
 Calculating transition moment for (1,1) => (1,2)
 starting transci.x -m 200000 at Sun May 15 19:35:58 EDT 2022

 -------------------- transci.x ------------------------

                          State No. 1            State No. 2

   Space symmetry:           a                      a   
   No. of CSFs:          ********               ********
   State energies:      -286.08224435          -285.92944229  a.u.

   Transition energy:     0.15280206  a.u.
   Transition energy:     4.16        eV

       Transition moment components:

                 x            y            z

electron          0.035649    -0.000000     0.000000  e*bohr
frozen core       0.000000     0.000000     0.000000  e*bohr
total (elec)      0.035649    -0.000000     0.000000  e*bohr


   Tr.dipole length:     0.035649    e*bohr
   Oscillator strength :  0.000129
   Einstein A coef.:     0.9711E+05  1/sec
   Einstein B coef.:     0.5157E+06  sec/g

                 x            y            z

<L> electron    -0.000000     0.238777     0.023056  e*bohr


   <L> value length:     0.239887    e*bohr
 --------------------------------------------------- 
  Calculating transition moment for (1,1) => (1,3)
 starting transci.x -m 200000 at Sun May 15 19:38:12 EDT 2022

 -------------------- transci.x ------------------------

                          State No. 1            State No. 2

   Space symmetry:           a                      a   
   No. of CSFs:          ********               ********
   State energies:      -286.08224435          -285.90321743  a.u.

   Transition energy:     0.17902693  a.u.
   Transition energy:     4.87        eV

       Transition moment components:

                 x            y            z

electron         -0.000000    -0.650757    -0.003614  e*bohr
frozen core       0.000000     0.000000     0.000000  e*bohr
total (elec)     -0.000000    -0.650757    -0.003614  e*bohr


   Tr.dipole length:     0.650767    e*bohr
   Oscillator strength :  0.050545
   Einstein A coef.:     0.5205E+08  1/sec
   Einstein B coef.:     0.1719E+09  sec/g

                 x            y            z

<L> electron     0.762329    -0.000000     0.000000  e*bohr


   <L> value length:     0.762329    e*bohr
 --------------------------------------------------- 
  Calculating transition moment for (1,1) => (1,4)
 starting transci.x -m 200000 at Sun May 15 19:40:24 EDT 2022

 -------------------- transci.x ------------------------

                          State No. 1            State No. 2

   Space symmetry:           a                      a   
   No. of CSFs:          ********               ********
   State energies:      -286.08224435          -285.85183061  a.u.

   Transition energy:     0.23041375  a.u.
   Transition energy:     6.27        eV

       Transition moment components:

                 x            y            z

electron         -0.000912    -0.000000    -0.000000  e*bohr
frozen core       0.000000     0.000000     0.000000  e*bohr
total (elec)     -0.000912    -0.000000    -0.000000  e*bohr


   Tr.dipole length:     0.000912    e*bohr
   Oscillator strength :  0.000000
   Einstein A coef.:     0.2178E+03  1/sec
   Einstein B coef.:     0.3373E+03  sec/g

                 x            y            z

<L> electron     0.000000    -0.001617     0.457376  e*bohr


   <L> value length:     0.457379    e*bohr
 --------------------------------------------------- 
 Not computing transition moment with identical bra and ket.
 Calculating transition moment for (1,2) => (1,3)
 starting transci.x -m 200000 at Sun May 15 19:42:35 EDT 2022

 -------------------- transci.x ------------------------

                          State No. 1            State No. 2

   Space symmetry:           a                      a   
   No. of CSFs:          ********               ********
   State energies:      -285.92944229          -285.90321743  a.u.

   Transition energy:     0.02622487  a.u.
   Transition energy:     0.71        eV

       Transition moment components:

                 x            y            z

electron         -0.000824    -0.000000     0.000000  e*bohr
frozen core       0.000000     0.000000     0.000000  e*bohr
total (elec)     -0.000824    -0.000000     0.000000  e*bohr


   Tr.dipole length:     0.000824    e*bohr
   Oscillator strength :  0.000000
   Einstein A coef.:     0.2624E+00  1/sec
   Einstein B coef.:     0.2757E+03  sec/g

                 x            y            z

<L> electron     0.000000    -0.002281    -0.137037  e*bohr


   <L> value length:     0.137056    e*bohr
 --------------------------------------------------- 
  Calculating transition moment for (1,2) => (1,4)
 starting transci.x -m 200000 at Sun May 15 19:44:42 EDT 2022

 -------------------- transci.x ------------------------

                          State No. 1            State No. 2

   Space symmetry:           a                      a   
   No. of CSFs:          ********               ********
   State energies:      -285.92944229          -285.85183061  a.u.

   Transition energy:     0.07761169  a.u.
   Transition energy:     2.11        eV

       Transition moment components:

                 x            y            z

electron         -0.000000     0.190227    -0.002072  e*bohr
frozen core       0.000000     0.000000     0.000000  e*bohr
total (elec)     -0.000000     0.190227    -0.002072  e*bohr


   Tr.dipole length:     0.190239    e*bohr
   Oscillator strength :  0.001873
   Einstein A coef.:     0.3624E+06  1/sec
   Einstein B coef.:     0.1469E+08  sec/g

                 x            y            z

<L> electron    -0.616287     0.000000     0.000000  e*bohr


   <L> value length:     0.616287    e*bohr
 --------------------------------------------------- 
 Not computing transition moment with identical bra and ket.
 Calculating transition moment for (1,3) => (1,4)
 starting transci.x -m 200000 at Sun May 15 19:46:51 EDT 2022

 -------------------- transci.x ------------------------

                          State No. 1            State No. 2

   Space symmetry:           a                      a   
   No. of CSFs:          ********               ********
   State energies:      -285.90321743          -285.85183061  a.u.

   Transition energy:     0.05138682  a.u.
   Transition energy:     1.40        eV

       Transition moment components:

                 x            y            z

electron          0.033389    -0.000000     0.000000  e*bohr
frozen core       0.000000     0.000000     0.000000  e*bohr
total (elec)      0.033389    -0.000000     0.000000  e*bohr


   Tr.dipole length:     0.033389    e*bohr
   Oscillator strength :  0.000038
   Einstein A coef.:     0.3240E+04  1/sec
   Einstein B coef.:     0.4524E+06  sec/g

                 x            y            z

<L> electron    -0.000000     0.134971     0.008603  e*bohr


   <L> value length:     0.135244    e*bohr
 --------------------------------------------------- 
 Not computing transition moment with identical bra and ket.
Not computing transition moment with identical bra and ket.
 Calculating transition moment for (2,1) => (2,2)
 starting transci.x -m 200000 at Sun May 15 19:48:59 EDT 2022

 -------------------- transci.x ------------------------

                          State No. 1            State No. 2

   Space symmetry:           a                      a   
   No. of CSFs:          ********               ********
   State energies:      -285.93451880          -285.93136501  a.u.

   Transition energy:     0.00315380  a.u.
   Transition energy:     0.09        eV

       Transition moment components:

                 x            y            z

electron         -0.011719    -0.000000     0.000000  e*bohr
frozen core       0.000000     0.000000     0.000000  e*bohr
total (elec)     -0.011719    -0.000000     0.000000  e*bohr


   Tr.dipole length:     0.011719    e*bohr
   Oscillator strength :  0.000000
   Einstein A coef.:     0.9227E-01  1/sec
   Einstein B coef.:     0.5573E+05  sec/g

                 x            y            z

<L> electron    -0.000000     0.174969     0.012697  e*bohr


   <L> value length:     0.175429    e*bohr
 --------------------------------------------------- 
  Calculating transition moment for (2,1) => (2,3)
 starting transci.x -m 200000 at Sun May 15 19:53:05 EDT 2022

 -------------------- transci.x ------------------------

                          State No. 1            State No. 2

   Space symmetry:           a                      a   
   No. of CSFs:          ********               ********
   State energies:      -285.93451880          -285.92230292  a.u.

   Transition energy:     0.01221588  a.u.
   Transition energy:     0.33        eV

       Transition moment components:

                 x            y            z

electron         -0.000000     0.299935     0.005247  e*bohr
frozen core       0.000000     0.000000     0.000000  e*bohr
total (elec)     -0.000000     0.299935     0.005247  e*bohr


   Tr.dipole length:     0.299981    e*bohr
   Oscillator strength :  0.000733
   Einstein A coef.:     0.3514E+04  1/sec
   Einstein B coef.:     0.3652E+08  sec/g

                 x            y            z

<L> electron     1.292908     0.000000    -0.000000  e*bohr


   <L> value length:     1.292908    e*bohr
 --------------------------------------------------- 
  Calculating transition moment for (2,1) => (2,4)
 starting transci.x -m 200000 at Sun May 15 19:57:06 EDT 2022

 -------------------- transci.x ------------------------

                          State No. 1            State No. 2

   Space symmetry:           a                      a   
   No. of CSFs:          ********               ********
   State energies:      -285.93451880          -285.89359033  a.u.

   Transition energy:     0.04092847  a.u.
   Transition energy:     1.11        eV

       Transition moment components:

                 x            y            z

electron         -0.000000     0.002769    -0.187992  e*bohr
frozen core       0.000000     0.000000     0.000000  e*bohr
total (elec)     -0.000000     0.002769    -0.187992  e*bohr


   Tr.dipole length:     0.188012    e*bohr
   Oscillator strength :  0.000965
   Einstein A coef.:     0.5191E+05  1/sec
   Einstein B coef.:     0.1435E+08  sec/g

                 x            y            z

<L> electron    -0.003496    -0.000000    -0.000000  e*bohr


   <L> value length:     0.003496    e*bohr
 --------------------------------------------------- 
 Not computing transition moment with identical bra and ket.
 Calculating transition moment for (2,2) => (2,3)
 starting transci.x -m 200000 at Sun May 15 20:01:13 EDT 2022

 -------------------- transci.x ------------------------

                          State No. 1            State No. 2

   Space symmetry:           a                      a   
   No. of CSFs:          ********               ********
   State energies:      -285.93136501          -285.92230292  a.u.

   Transition energy:     0.00906209  a.u.
   Transition energy:     0.25        eV

       Transition moment components:

                 x            y            z

electron          0.001483     0.000000    -0.000000  e*bohr
frozen core       0.000000     0.000000     0.000000  e*bohr
total (elec)      0.001483     0.000000    -0.000000  e*bohr


   Tr.dipole length:     0.001483    e*bohr
   Oscillator strength :  0.000000
   Einstein A coef.:     0.3507E-01  1/sec
   Einstein B coef.:     0.8930E+03  sec/g

                 x            y            z

<L> electron     0.000000     0.002517     0.103483  e*bohr


   <L> value length:     0.103514    e*bohr
 --------------------------------------------------- 
  Calculating transition moment for (2,2) => (2,4)
 starting transci.x -m 200000 at Sun May 15 20:05:16 EDT 2022

 -------------------- transci.x ------------------------

                          State No. 1            State No. 2

   Space symmetry:           a                      a   
   No. of CSFs:          ********               ********
   State energies:      -285.93136501          -285.89359033  a.u.

   Transition energy:     0.03777468  a.u.
   Transition energy:     1.03        eV

       Transition moment components:

                 x            y            z

electron          0.023851    -0.000000    -0.000000  e*bohr
frozen core       0.000000     0.000000     0.000000  e*bohr
total (elec)      0.023851    -0.000000    -0.000000  e*bohr


   Tr.dipole length:     0.023851    e*bohr
   Oscillator strength :  0.000014
   Einstein A coef.:     0.6568E+03  1/sec
   Einstein B coef.:     0.2309E+06  sec/g

                 x            y            z

<L> electron     0.000000     0.028447     0.002830  e*bohr


   <L> value length:     0.028587    e*bohr
 --------------------------------------------------- 
 Not computing transition moment with identical bra and ket.
 Calculating transition moment for (2,3) => (2,4)
 starting transci.x -m 200000 at Sun May 15 20:09:18 EDT 2022

 -------------------- transci.x ------------------------

                          State No. 1            State No. 2

   Space symmetry:           a                      a   
   No. of CSFs:          ********               ********
   State energies:      -285.92230292          -285.89359033  a.u.

   Transition energy:     0.02871259  a.u.
   Transition energy:     0.78        eV

       Transition moment components:

                 x            y            z

electron         -0.000000     0.180987     0.002001  e*bohr
frozen core       0.000000     0.000000     0.000000  e*bohr
total (elec)     -0.000000     0.180987     0.002001  e*bohr


   Tr.dipole length:     0.180998    e*bohr
   Oscillator strength :  0.000627
   Einstein A coef.:     0.1661E+05  1/sec
   Einstein B coef.:     0.1329E+08  sec/g

                 x            y            z

<L> electron    -0.020731     0.000000     0.000000  e*bohr


   <L> value length:     0.020731    e*bohr
 --------------------------------------------------- 
 Not computing transition moment with identical bra and ket.
 --- ci properties for state 1 of  DRT 1 ----
starting exptvl.x -m 200000  at Sun May 15 20:13:21 EDT 2022

 -------------------- exptvl.x ------------------------
  === dipole moment === 
                     X               Y               Z   
   orign x       0.00000000      0.00000000      0.00000000
   orign y       0.00000000      0.00000000      0.00000000
   orign z       0.00000000      0.00000000      0.00000000
   nuclear       0.00000000      0.19384418     -0.28492040
   electronic   -0.00000000     -0.17012135     -0.64127773
   total        -0.00000000      0.02372283     -0.92619813
   total Dipole moment =   2.35493525    Debye
 !timer: exptvl required                 cpu_time=     0.190 walltime=     0.753
 --------------------------------------------------- 
  --- ci properties for state 2 of  DRT 1 ----
starting exptvl.x -m 200000  at Sun May 15 20:13:22 EDT 2022

 -------------------- exptvl.x ------------------------
  === dipole moment === 
                     X               Y               Z   
   orign x       0.00000000      0.00000000      0.00000000
   orign y       0.00000000      0.00000000      0.00000000
   orign z       0.00000000      0.00000000      0.00000000
   nuclear       0.00000000      0.19384418     -0.28492040
   electronic   -0.00000000     -0.19624415      3.48690211
   total        -0.00000000     -0.00239997      3.20198171
   total Dipole moment =   8.13863609    Debye
 --------------------------------------------------- 
  --- ci properties for state 3 of  DRT 1 ----
starting exptvl.x -m 200000  at Sun May 15 20:13:23 EDT 2022

 -------------------- exptvl.x ------------------------
  === dipole moment === 
                     X               Y               Z   
   orign x       0.00000000      0.00000000      0.00000000
   orign y       0.00000000      0.00000000      0.00000000
   orign z       0.00000000      0.00000000      0.00000000
   nuclear       0.00000000      0.19384418     -0.28492040
   electronic   -0.00000000     -0.16300557     -0.97053917
   total        -0.00000000      0.03083861     -1.25545957
   total Dipole moment =   3.19202566    Debye
 --------------------------------------------------- 
  --- ci properties for state 4 of  DRT 1 ----
starting exptvl.x -m 200000  at Sun May 15 20:13:23 EDT 2022

 -------------------- exptvl.x ------------------------
  === dipole moment === 
                     X               Y               Z   
   orign x       0.00000000      0.00000000      0.00000000
   orign y       0.00000000      0.00000000      0.00000000
   orign z       0.00000000      0.00000000      0.00000000
   nuclear       0.00000000      0.19384418     -0.28492040
   electronic   -0.00000000     -0.18859001      4.20645773
   total        -0.00000000      0.00525417      3.92153733
   total Dipole moment =   9.96757254    Debye
 --------------------------------------------------- 
  --- ci properties for state 1 of  DRT 2 ----
starting exptvl.x -m 200000  at Sun May 15 20:13:23 EDT 2022

 -------------------- exptvl.x ------------------------
  === dipole moment === 
                     X               Y               Z   
   orign x       0.00000000      0.00000000      0.00000000
   orign y       0.00000000      0.00000000      0.00000000
   orign z       0.00000000      0.00000000      0.00000000
   nuclear       0.00000000      0.19384418     -0.28492040
   electronic   -0.00000000     -0.17745589     -0.68710536
   total        -0.00000000      0.01638829     -0.97202576
   total Dipole moment =   2.47099662    Debye
 --------------------------------------------------- 
  --- ci properties for state 2 of  DRT 2 ----
starting exptvl.x -m 200000  at Sun May 15 20:13:24 EDT 2022

 -------------------- exptvl.x ------------------------
  === dipole moment === 
                     X               Y               Z   
   orign x       0.00000000      0.00000000      0.00000000
   orign y       0.00000000      0.00000000      0.00000000
   orign z       0.00000000      0.00000000      0.00000000
   nuclear       0.00000000      0.19384418     -0.28492040
   electronic   -0.00000000     -0.20867760      3.45306496
   total        -0.00000000     -0.01483342      3.16814456
   total Dipole moment =   8.05271653    Debye
 --------------------------------------------------- 
  --- ci properties for state 3 of  DRT 2 ----
starting exptvl.x -m 200000  at Sun May 15 20:13:24 EDT 2022

 -------------------- exptvl.x ------------------------
  === dipole moment === 
                     X               Y               Z   
   orign x       0.00000000      0.00000000      0.00000000
   orign y       0.00000000      0.00000000      0.00000000
   orign z       0.00000000      0.00000000      0.00000000
   nuclear       0.00000000      0.19384418     -0.28492040
   electronic   -0.00000000     -0.15424585     -1.25717225
   total        -0.00000000      0.03959833     -1.54209265
   total Dipole moment =   3.92090449    Debye
 --------------------------------------------------- 
  --- ci properties for state 4 of  DRT 2 ----
starting exptvl.x -m 200000  at Sun May 15 20:13:25 EDT 2022

 -------------------- exptvl.x ------------------------
  === dipole moment === 
                     X               Y               Z   
   orign x       0.00000000      0.00000000      0.00000000
   orign y       0.00000000      0.00000000      0.00000000
   orign z       0.00000000      0.00000000      0.00000000
   nuclear       0.00000000      0.19384418     -0.28492040
   electronic   -0.00000000     -0.16873182     -0.81794288
   total        -0.00000000      0.02511236     -1.10286328
   total Dipole moment =   2.80392824    Debye
 --------------------------------------------------- 
 starting mo_convert.x at Sun May 15 20:13:25 EDT 2022

 -------------------- mo_convert.x ------------------------
 --------------------------------------------------- 
 starting pymolcas molcas.input.molden > molcas.output.molden at Sun May 15 20:13:26 EDT 2022

Generating link ln -s ./molcas.OrdInt ORDINT 
 -------------------- molden ------------------------
 --------------------------------------------------- 
 starting mo_convert.x at Sun May 15 20:13:51 EDT 2022

 -------------------- mo_convert.x ------------------------
 --------------------------------------------------- 
 starting pymolcas molcas.input.molden > molcas.output.molden at Sun May 15 20:13:51 EDT 2022

Generating link ln -s ./molcas.OrdInt ORDINT 
 -------------------- molden ------------------------
 --------------------------------------------------- 
 starting mo_convert.x at Sun May 15 20:14:10 EDT 2022

 -------------------- mo_convert.x ------------------------
 --------------------------------------------------- 
 starting pymolcas molcas.input.molden > molcas.output.molden at Sun May 15 20:14:10 EDT 2022

Generating link ln -s ./molcas.OrdInt ORDINT 
 -------------------- molden ------------------------
 --------------------------------------------------- 
 starting mo_convert.x at Sun May 15 20:14:25 EDT 2022

 -------------------- mo_convert.x ------------------------
 --------------------------------------------------- 
 starting pymolcas molcas.input.molden > molcas.output.molden at Sun May 15 20:14:25 EDT 2022

Generating link ln -s ./molcas.OrdInt ORDINT 
 -------------------- molden ------------------------
 --------------------------------------------------- 
 starting mo_convert.x at Sun May 15 20:14:39 EDT 2022

 -------------------- mo_convert.x ------------------------
 --------------------------------------------------- 
 starting pymolcas molcas.input.molden > molcas.output.molden at Sun May 15 20:14:39 EDT 2022

Generating link ln -s ./molcas.OrdInt ORDINT 
 -------------------- molden ------------------------
 --------------------------------------------------- 
 starting mo_convert.x at Sun May 15 20:14:54 EDT 2022

 -------------------- mo_convert.x ------------------------
 --------------------------------------------------- 
 starting pymolcas molcas.input.molden > molcas.output.molden at Sun May 15 20:14:54 EDT 2022

Generating link ln -s ./molcas.OrdInt ORDINT 
 -------------------- molden ------------------------
 --------------------------------------------------- 
 starting mo_convert.x at Sun May 15 20:15:08 EDT 2022

 -------------------- mo_convert.x ------------------------
 --------------------------------------------------- 
 starting pymolcas molcas.input.molden > molcas.output.molden at Sun May 15 20:15:08 EDT 2022

Generating link ln -s ./molcas.OrdInt ORDINT 
 -------------------- molden ------------------------
 --------------------------------------------------- 
 starting mo_convert.x at Sun May 15 20:15:22 EDT 2022

 -------------------- mo_convert.x ------------------------
 --------------------------------------------------- 
 starting pymolcas molcas.input.molden > molcas.output.molden at Sun May 15 20:15:23 EDT 2022

Generating link ln -s ./molcas.OrdInt ORDINT 
 -------------------- molden ------------------------
 --------------------------------------------------- 
 starting mo_convert.x at Sun May 15 20:15:38 EDT 2022

 -------------------- mo_convert.x ------------------------
 --------------------------------------------------- 
 starting pymolcas molcas.input.molden > molcas.output.molden at Sun May 15 20:15:38 EDT 2022

Generating link ln -s ./molcas.OrdInt ORDINT 
 -------------------- molden ------------------------
 --------------------------------------------------- 
 starting mo_convert.x at Sun May 15 20:15:52 EDT 2022

 -------------------- mo_convert.x ------------------------
 --------------------------------------------------- 
 starting pymolcas molcas.input.molden > molcas.output.molden at Sun May 15 20:15:53 EDT 2022

Generating link ln -s ./molcas.OrdInt ORDINT 
 -------------------- molden ------------------------
 --------------------------------------------------- 
 starting mo_convert.x at Sun May 15 20:16:07 EDT 2022

 -------------------- mo_convert.x ------------------------
 --------------------------------------------------- 
 starting pymolcas molcas.input.molden > molcas.output.molden at Sun May 15 20:16:08 EDT 2022

Generating link ln -s ./molcas.OrdInt ORDINT 
 -------------------- molden ------------------------
 --------------------------------------------------- 
 starting mo_convert.x at Sun May 15 20:16:22 EDT 2022

 -------------------- mo_convert.x ------------------------
 --------------------------------------------------- 
 starting pymolcas molcas.input.molden > molcas.output.molden at Sun May 15 20:16:23 EDT 2022

Generating link ln -s ./molcas.OrdInt ORDINT 
 -------------------- molden ------------------------
 --------------------------------------------------- 
 starting mo_convert.x at Sun May 15 20:16:37 EDT 2022

 -------------------- mo_convert.x ------------------------
 --------------------------------------------------- 
 starting pymolcas molcas.input.molden > molcas.output.molden at Sun May 15 20:16:38 EDT 2022

Generating link ln -s ./molcas.OrdInt ORDINT 
 -------------------- molden ------------------------
 --------------------------------------------------- 
 starting mo_convert.x at Sun May 15 20:16:52 EDT 2022

 -------------------- mo_convert.x ------------------------
 --------------------------------------------------- 
 starting pymolcas molcas.input.molden > molcas.output.molden at Sun May 15 20:16:53 EDT 2022

Generating link ln -s ./molcas.OrdInt ORDINT 
 -------------------- molden ------------------------
 --------------------------------------------------- 
 

 +++++++++++ STARTING GRADIENTS AND NAD. COUPLINGS CALCULATION +++++++++++ 

 Using new transition density code ... 
INFO: this is a frozen core gradient calculation
starting cidrt.x  -m 200000 < cidrtin.cigrd > cidrtls.cigrd at Sun May 15 20:17:07 EDT 2022

 -------------------- cidrt.x ------------------------
 total number of orbitals            :   246
 number of frozen core orbitals      :    18
 number of frozen virtual orbitals   :     0
 number of internal orbitals         :    14
 number of external orbitals         :   214
 spatial symmetry:   a  
 
 total number of configurations  282461366
 number of reference configurations  1666
 --------------------------------------------------- 
 starting tran.x -m 200000  at Sun May 15 20:17:14 EDT 2022

 -------------------- tran.x ------------------------
 --------------------------------------------------- 
 ---- Computing 8 gradient(s)  ----

 --- Computing gradient for DRT:1, State; 1

starting cigrd.x -m 200000 at Sun May 15 20:22:57 EDT 2022

 -------------------- cigrd.x ------------------------
 Total energy (ciudg) :  -286.082244354416 
  Effective energy     :  -286.082244365548 
  Delta E              :     0.000000011132 
  --------------------------------------------------- 
 starting tran.x -m 200000  at Sun May 15 20:30:08 EDT 2022

 -------------------- tran.x ------------------------
 --------------------------------------------------- 
 starting pymolcas molcas.input.alaska > molcas.output.alaska  at Sun May 15 20:35:16 EDT 2022

Generating link ln -s ./molcas.OrdInt ORDINT 
 -------------------- alaska ------------------------
 --------------------------------------------------- 
 cartesian gradient by alaska (MOLCAS)

 === Gradient of DRT 1, state 1 === 
   0.179943D-07  -0.128829D+00  -0.456245D-02
   0.199647D-08  -0.217864D-02  -0.665062D-01
  -0.750938D-08  -0.274618D-01   0.264712D-01
   0.128975D-07   0.278200D-01   0.256457D-01
  -0.332192D-08  -0.161779D-01  -0.222452D-01
  -0.179537D-07   0.159500D-01  -0.226624D-01
   0.382973D-08  -0.651170D-04   0.207714D-02
  -0.783209D-08   0.117493D+00   0.734094D-01
   0.622344D-09   0.132225D-01  -0.101321D-01
   0.102432D-09   0.312322D-02   0.109720D-02
  -0.270594D-08  -0.301181D-02   0.117307D-02
  -0.394483D-09   0.126595D-02  -0.151541D-02
   0.281673D-08  -0.115038D-02  -0.151912D-02
  -0.541972D-09  -0.853684D-06  -0.730745D-03
===================================
 --- Computing gradient for DRT:1, State; 2

starting cigrd.x -m 200000 at Sun May 15 20:36:34 EDT 2022

 -------------------- cigrd.x ------------------------
 Total energy (ciudg) :  -285.929442293673 
  Effective energy     :  -285.929442306013 
  Delta E              :     0.000000012340 
  --------------------------------------------------- 
 starting tran.x -m 200000  at Sun May 15 20:44:19 EDT 2022

 -------------------- tran.x ------------------------
 --------------------------------------------------- 
 starting pymolcas molcas.input.alaska > molcas.output.alaska  at Sun May 15 20:49:26 EDT 2022

Generating link ln -s ./molcas.OrdInt ORDINT 
 -------------------- alaska ------------------------
 --------------------------------------------------- 
 cartesian gradient by alaska (MOLCAS)

 === Gradient of DRT 1, state 2 === 
   0.959440D-09  -0.129556D+00  -0.822761D-01
  -0.594719D-08   0.882942D-04   0.256380D-04
  -0.560311D-08  -0.543263D-04  -0.182266D-04
   0.137544D-07  -0.262466D-04   0.555209D-04
   0.103188D-07   0.257734D-04  -0.111835D-04
  -0.850259D-08  -0.217668D-04  -0.101097D-03
  -0.459989D-08   0.157903D-04   0.794628D-04
  -0.239564D-10   0.129478D+00   0.822452D-01
  -0.534116D-09   0.160678D-04  -0.223914D-05
  -0.993172D-09   0.211483D-04   0.815848D-05
  -0.201763D-08   0.177313D-04  -0.491157D-05
   0.273807D-08  -0.459193D-05  -0.216680D-04
   0.913993D-09   0.303716D-05   0.269723D-04
  -0.463084D-09  -0.322518D-05  -0.556001D-05
===================================
 --- Computing gradient for DRT:1, State; 3

starting cigrd.x -m 200000 at Sun May 15 20:50:47 EDT 2022

 -------------------- cigrd.x ------------------------
 Total energy (ciudg) :  -285.903217425976 
  Effective energy     :  -285.903217438327 
  Delta E              :     0.000000012351 
  --------------------------------------------------- 
 starting tran.x -m 200000  at Sun May 15 20:58:16 EDT 2022

 -------------------- tran.x ------------------------
 --------------------------------------------------- 
 starting pymolcas molcas.input.alaska > molcas.output.alaska  at Sun May 15 21:03:16 EDT 2022

Generating link ln -s ./molcas.OrdInt ORDINT 
 -------------------- alaska ------------------------
 --------------------------------------------------- 
 cartesian gradient by alaska (MOLCAS)

 === Gradient of DRT 1, state 3 === 
   0.134756D-07  -0.129967D+00  -0.218497D-01
  -0.117006D-08  -0.167966D-02  -0.512198D-01
  -0.153423D-08  -0.210476D-02   0.622562D-01
   0.204856D-07   0.222000D-02   0.611558D-01
  -0.475860D-08   0.110127D-01  -0.537383D-01
  -0.117315D-07  -0.113975D-01  -0.537862D-01
  -0.196829D-08   0.514723D-04  -0.517825D-02
  -0.638183D-08   0.120262D+00   0.738492D-01
  -0.515772D-10   0.114165D-01  -0.101462D-01
  -0.268818D-08   0.209084D-02   0.892255D-03
  -0.622719D-08  -0.201415D-02   0.971356D-03
   0.236195D-08  -0.175635D-03  -0.126894D-02
   0.197567D-08   0.286573D-03  -0.127365D-02
  -0.178739D-08  -0.185052D-05  -0.663711D-03
===================================
 --- Computing gradient for DRT:1, State; 4

starting cigrd.x -m 200000 at Sun May 15 21:04:31 EDT 2022

 -------------------- cigrd.x ------------------------
 Total energy (ciudg) :  -285.851830607276 
  Effective energy     :  -285.851830619121 
  Delta E              :     0.000000011845 
  --------------------------------------------------- 
 starting tran.x -m 200000  at Sun May 15 21:12:08 EDT 2022

 -------------------- tran.x ------------------------
 --------------------------------------------------- 
 starting pymolcas molcas.input.alaska > molcas.output.alaska  at Sun May 15 21:17:19 EDT 2022

Generating link ln -s ./molcas.OrdInt ORDINT 
 -------------------- alaska ------------------------
 --------------------------------------------------- 
 cartesian gradient by alaska (MOLCAS)

 === Gradient of DRT 1, state 4 === 
   0.187286D-10  -0.130049D+00  -0.537414D-01
  -0.481912D-08  -0.485917D-03  -0.103178D-01
  -0.877675D-09  -0.235026D-01   0.669491D-01
   0.117012D-07   0.236771D-01   0.669676D-01
   0.987846D-08  -0.268351D-01  -0.693482D-01
  -0.722242D-08   0.266610D-01  -0.695944D-01
  -0.732184D-08   0.406428D-04  -0.438639D-02
   0.420125D-09   0.122254D+00   0.783582D-01
  -0.609965D-09   0.820820D-02  -0.462179D-02
  -0.726932D-09  -0.262700D-03  -0.111680D-03
  -0.136666D-08   0.296287D-03  -0.122961D-03
   0.236932D-08  -0.159029D-03  -0.698769D-03
   0.844470D-09   0.159877D-03  -0.661470D-03
  -0.228766D-08  -0.299577D-05   0.132999D-02
===================================
 --- Computing gradient for DRT:2, State; 1

starting cigrd.x -m 200000 at Sun May 15 21:18:39 EDT 2022

 -------------------- cigrd.x ------------------------
 Total energy (ciudg) :  -285.934518804466 
  Effective energy     :  -285.934518815467 
  Delta E              :     0.000000011001 
  --------------------------------------------------- 
 starting tran.x -m 200000  at Sun May 15 21:26:18 EDT 2022

 -------------------- tran.x ------------------------
 --------------------------------------------------- 
 starting pymolcas molcas.input.alaska > molcas.output.alaska  at Sun May 15 21:31:34 EDT 2022

Generating link ln -s ./molcas.OrdInt ORDINT 
 -------------------- alaska ------------------------
 --------------------------------------------------- 
 cartesian gradient by alaska (MOLCAS)

 === Gradient of DRT 2, state 1 === 
   0.125334D-07  -0.128556D+00   0.132857D-01
  -0.180602D-08  -0.335766D-02  -0.445906D-01
  -0.463161D-08   0.950607D-02  -0.178112D-01
   0.190435D-07  -0.800987D-02  -0.185201D-01
  -0.102848D-08   0.365140D-01   0.223715D-01
  -0.115164D-07  -0.380696D-01   0.228304D-01
  -0.679566D-08   0.109548D-02  -0.410873D-01
  -0.726099D-08   0.116545D+00   0.743547D-01
   0.100143D-08   0.140528D-01  -0.924657D-02
   0.798204D-09   0.406166D-02  -0.385446D-03
  -0.267179D-08  -0.395106D-02  -0.286341D-03
  -0.644297D-09   0.106440D-02  -0.566078D-03
   0.257744D-08  -0.928036D-03  -0.547969D-03
   0.401262D-09   0.327781D-04   0.199226D-03
===================================
 --- Computing gradient for DRT:2, State; 2

starting cigrd.x -m 200000 at Sun May 15 21:32:54 EDT 2022

 -------------------- cigrd.x ------------------------
 Total energy (ciudg) :  -285.931365009104 
  Effective energy     :  -285.931365021610 
  Delta E              :     0.000000012506 
  --------------------------------------------------- 
 starting tran.x -m 200000  at Sun May 15 21:40:36 EDT 2022

 -------------------- tran.x ------------------------
 --------------------------------------------------- 
 starting pymolcas molcas.input.alaska > molcas.output.alaska  at Sun May 15 21:45:45 EDT 2022

Generating link ln -s ./molcas.OrdInt ORDINT 
 -------------------- alaska ------------------------
 --------------------------------------------------- 
 cartesian gradient by alaska (MOLCAS)

 === Gradient of DRT 2, state 2 === 
  -0.295534D-08  -0.128573D+00  -0.823990D-01
  -0.247907D-08   0.260295D-03  -0.192151D-02
  -0.166677D-08  -0.634450D-03   0.797175D-03
   0.125366D-07   0.467651D-03   0.944837D-03
   0.109553D-07  -0.557076D-03  -0.112236D-02
  -0.117545D-07   0.604770D-03  -0.119763D-02
  -0.562616D-08   0.213039D-04   0.802889D-03
   0.878556D-09   0.130607D+00   0.828142D-01
   0.469162D-09  -0.227263D-02   0.138052D-02
  -0.523869D-09  -0.137324D-04   0.117283D-04
  -0.164308D-08   0.981949D-04   0.785766D-06
   0.870925D-09   0.161978D-04  -0.669218D-04
  -0.918278D-10  -0.241053D-04  -0.866804D-05
   0.103010D-08  -0.664545D-06  -0.360221D-04
===================================
 --- Computing gradient for DRT:2, State; 3

starting cigrd.x -m 200000 at Sun May 15 21:47:05 EDT 2022

 -------------------- cigrd.x ------------------------
 Total energy (ciudg) :  -285.922302919535 
  Effective energy     :  -285.922302932505 
  Delta E              :     0.000000012970 
  --------------------------------------------------- 
 starting tran.x -m 200000  at Sun May 15 21:54:53 EDT 2022

 -------------------- tran.x ------------------------
 --------------------------------------------------- 
 starting pymolcas molcas.input.alaska > molcas.output.alaska  at Sun May 15 22:00:01 EDT 2022

Generating link ln -s ./molcas.OrdInt ORDINT 
 -------------------- alaska ------------------------
 --------------------------------------------------- 
 cartesian gradient by alaska (MOLCAS)

 === Gradient of DRT 2, state 3 === 
   0.203763D-07  -0.130863D+00  -0.438815D-01
  -0.112876D-07  -0.463960D-03  -0.348402D-01
  -0.135775D-08  -0.196720D-02   0.623708D-01
   0.180014D-07   0.942168D-03   0.611283D-01
  -0.558658D-08   0.653445D-02  -0.614934D-01
  -0.138356D-07  -0.569819D-02  -0.621994D-01
   0.150952D-08  -0.970391D-03   0.159470D-01
  -0.557063D-08   0.122162D+00   0.738823D-01
  -0.894977D-09   0.102062D-01  -0.104149D-01
   0.153383D-09   0.140835D-02   0.154606D-02
  -0.259930D-08  -0.135059D-02   0.160246D-02
   0.245707D-08  -0.580911D-03  -0.110863D-02
  -0.505421D-09   0.674035D-03  -0.113544D-02
  -0.859811D-09  -0.329663D-04  -0.140347D-02
===================================
 --- Computing gradient for DRT:2, State; 4

starting cigrd.x -m 200000 at Sun May 15 22:01:19 EDT 2022

 -------------------- cigrd.x ------------------------
 Total energy (ciudg) :  -285.893590329662 
  Effective energy     :  -285.893590341650 
[...]
   6.733604E+00   2.853690E-06  -3.909308E-06
  -2.397007E+00  -1.405830E-06   3.196429E-07
  -1.763832E+00   3.356478E-07   2.554325E-06
  -1.802591E+00   1.539497E-06   7.372996E-07
  -1.787516E+00  -1.510179E-06  -5.006598E-07
   2.027156E+00  -3.969010E-07  -2.714319E-07
  -1.210149E-01  -2.757668E-08  -3.746706E-07
  -7.839361E-01   1.080501E-06  -1.031668E-06
   3.164457E-01  -2.166980E-07   2.419545E-08
   2.916141E-01  -6.591786E-08  -1.858943E-07
   1.790840E-01  -2.544327E-07  -5.821773E-08
   1.058073E-01   3.330751E-07   1.759536E-07
   1.984007E-01   1.968489E-08   3.663443E-08
===================================

 Norm of the nonadiabatic coupling vector: 
 |h(drt2.state1,drt2.state2)|= 8.19496862415419 

 Cross-check of the non-adiabatic coupling term:
  DeltaE= -0.00315379540001004

  <L>*dE form CIGRD   :    0.0000653813    -0.0000000000    -0.0000000000
  <L>*dE form NADCOUPL:   -0.0000000070    -0.0005416554    -0.0000396452
 -------------------------------------------------------------------------
  Difference          :    0.0000653883     0.0005416554     0.0000396452

 NOTE: This test is meaningless at a point of conical intersection!


 -------- NAD. COUPLING for DRT:2 STATE:1 AND DRT:2 STATE:3 --------
opening file =ciudgls.drt2.sp
opening file =ciudgls.drt2.sp
extracted: energy1= -285.9345188043   energy2=-285.9223029194   deltae=-0.0122158849000016
starting cigrd.x -m 200000 at Sun May 15 23:57:21 EDT 2022

 -------------------- cigrd.x ------------------------
 Total energy (ciudg) :     0.000000000198 
  Effective energy     :    -0.000000004213 
  Delta E              :     0.000000004411 
  --------------------------------------------------- 
 starting tran.x -m 200000  at Mon May 16 00:04:58 EDT 2022

 -------------------- tran.x ------------------------
 --------------------------------------------------- 
  adding keyword NONUC to alaska input
starting pymolcas molcas.input.alaska > molcas.output.alaska  at Mon May 16 00:09:54 EDT 2022

Generating link ln -s ./molcas.OrdInt ORDINT 
 -------------------- alaska ------------------------
 --------------------------------------------------- 
 cartesian gradient by alaska (MOLCAS)

 Calculating the Dx(r,s) term of D[CSF] nonadiabatic coupling term.
dxcalc: INPUT LINE SEPARATOR 
 
starting tran.x -m 200000  at Mon May 16 00:11:00 EDT 2022

 -------------------- tran.x ------------------------
 --------------------------------------------------- 
 starting tdmrunfile.x > tdmrunfilels at Mon May 16 00:11:00 EDT 2022

 -------------------- tdmrunfile.x ------------------------
 --------------------------------------------------- 
 starting pymolcas molcas.input.alaska > molcas.output.alaska  at Mon May 16 00:11:00 EDT 2022

Generating link ln -s ./molcas.OrdInt ORDINT 
 -------------------- alaska ------------------------
 --------------------------------------------------- 
 
 === Non-adiabatic coupling for DRT 2 STATE 1 and DRT 2 STATE 3 === 
   4.732679E-07  -1.035322E+00   3.476385E-02
   9.935412E-08   7.529083E+00  -1.285770E-02
  -6.337288E-07  -3.604527E+00   7.265555E-01
  -2.776081E-08  -3.627225E+00  -8.301335E-01
  -4.579751E-07   3.449634E+00   1.614456E+00
  -1.774821E-07   3.410477E+00  -1.503408E+00
   2.661983E-07  -5.920322E+00  -3.306496E-02
   2.383206E-08   2.946113E-03  -2.009556E-02
  -6.737551E-08   8.956286E-03   2.437174E-02
   1.631737E-07   1.793863E-02   6.602450E-02
   2.947687E-07   1.481158E-02  -6.882328E-02
   8.840178E-08  -4.735447E-02   4.688013E-02
  -7.667800E-08  -4.974767E-02  -4.560995E-02
   3.201545E-08  -1.561276E-01   1.153972E-03
===================================

 Norm of the nonadiabatic coupling vector: 
 |h(drt2.state1,drt2.state3)|= 12.1909879066165 

 Cross-check of the non-adiabatic coupling term:
  DeltaE= -0.0122158849000016

  <L>*dE form CIGRD   :    0.0002532475    -0.0000000000    -0.0000000000
  <L>*dE form NADCOUPL:   -0.0157941407     0.0000000318     0.0000000218
 -------------------------------------------------------------------------
  Difference          :    0.0160473882    -0.0000000318    -0.0000000218

 NOTE: This test is meaningless at a point of conical intersection!


 -------- NAD. COUPLING for DRT:2 STATE:1 AND DRT:2 STATE:4 --------
opening file =ciudgls.drt2.sp
opening file =ciudgls.drt2.sp
extracted: energy1= -285.9345188043   energy2=-285.8935903295   deltae=-0.0409284748000118
starting cigrd.x -m 200000 at Mon May 16 00:12:05 EDT 2022

 -------------------- cigrd.x ------------------------
 Total energy (ciudg) :     0.000000000358 
  Effective energy     :     0.000000008057 
  Delta E              :    -0.000000007699 
  --------------------------------------------------- 
 starting tran.x -m 200000  at Mon May 16 00:19:16 EDT 2022

 -------------------- tran.x ------------------------
 --------------------------------------------------- 
  adding keyword NONUC to alaska input
starting pymolcas molcas.input.alaska > molcas.output.alaska  at Mon May 16 00:24:13 EDT 2022

Generating link ln -s ./molcas.OrdInt ORDINT 
 -------------------- alaska ------------------------
 --------------------------------------------------- 
 cartesian gradient by alaska (MOLCAS)

 Calculating the Dx(r,s) term of D[CSF] nonadiabatic coupling term.
dxcalc: INPUT LINE SEPARATOR 
 
starting tran.x -m 200000  at Mon May 16 00:25:20 EDT 2022

 -------------------- tran.x ------------------------
 --------------------------------------------------- 
 starting tdmrunfile.x > tdmrunfilels at Mon May 16 00:25:20 EDT 2022

 -------------------- tdmrunfile.x ------------------------
 --------------------------------------------------- 
 starting pymolcas molcas.input.alaska > molcas.output.alaska  at Mon May 16 00:25:21 EDT 2022

Generating link ln -s ./molcas.OrdInt ORDINT 
 -------------------- alaska ------------------------
 --------------------------------------------------- 
 
 === Non-adiabatic coupling for DRT 2 STATE 1 and DRT 2 STATE 4 === 
   5.575294E-08   1.948581E-04  -2.413603E-03
   1.756907E-08   8.284103E-03   2.729531E-01
  -5.084742E-08   3.053335E-01  -1.193314E+00
  -5.996800E-08  -3.100229E-01  -1.194103E+00
  -4.395431E-08   4.113795E-01   1.252343E+00
   6.861719E-08  -4.077627E-01   1.243663E+00
   3.228313E-08  -4.966749E-03  -4.386769E-01
  -1.390006E-08   1.280056E-02   1.309980E-02
  -2.852301E-08  -1.499398E-02   1.442647E-02
   2.021192E-08   1.805820E-02  -7.962890E-03
   1.146257E-08  -1.842340E-02  -7.836174E-03
  -3.046592E-08   1.516736E-02   1.696954E-02
   1.783990E-09  -1.494322E-02   1.719660E-02
   1.998104E-08  -1.021370E-05   8.853465E-03
===================================

 Norm of the nonadiabatic coupling vector: 
 |h(drt2.state1,drt2.state4)|= 2.59990422919445 

 Cross-check of the non-adiabatic coupling term:
  DeltaE= -0.0409284748000118

  <L>*dE form CIGRD   :    0.0008484882    -0.0000000000    -0.0000000000
  <L>*dE form NADCOUPL:    0.0001432903    -0.0000000056     0.0000000125
 -------------------------------------------------------------------------
  Difference          :    0.0007051979     0.0000000056    -0.0000000125

 NOTE: This test is meaningless at a point of conical intersection!


 -------- NAD. COUPLING for DRT:2 STATE:2 AND DRT:2 STATE:3 --------
opening file =ciudgls.drt2.sp
opening file =ciudgls.drt2.sp
extracted: energy1= -285.9313650089   energy2=-285.9223029194   deltae=-0.00906208949999154
starting cigrd.x -m 200000 at Mon May 16 00:26:25 EDT 2022

 -------------------- cigrd.x ------------------------
 Total energy (ciudg) :    -0.000000000252 
  Effective energy     :    -0.000000001974 
  Delta E              :     0.000000001722 
  --------------------------------------------------- 
 starting tran.x -m 200000  at Mon May 16 00:33:58 EDT 2022

 -------------------- tran.x ------------------------
 --------------------------------------------------- 
  adding keyword NONUC to alaska input
starting pymolcas molcas.input.alaska > molcas.output.alaska  at Mon May 16 00:38:44 EDT 2022

Generating link ln -s ./molcas.OrdInt ORDINT 
 -------------------- alaska ------------------------
 --------------------------------------------------- 
 cartesian gradient by alaska (MOLCAS)

 Calculating the Dx(r,s) term of D[CSF] nonadiabatic coupling term.
dxcalc: INPUT LINE SEPARATOR 
 
starting tran.x -m 200000  at Mon May 16 00:39:47 EDT 2022

 -------------------- tran.x ------------------------
 --------------------------------------------------- 
 starting tdmrunfile.x > tdmrunfilels at Mon May 16 00:39:47 EDT 2022

 -------------------- tdmrunfile.x ------------------------
 --------------------------------------------------- 
 starting pymolcas molcas.input.alaska > molcas.output.alaska  at Mon May 16 00:39:47 EDT 2022

Generating link ln -s ./molcas.OrdInt ORDINT 
 -------------------- alaska ------------------------
 --------------------------------------------------- 
 
 === Non-adiabatic coupling for DRT 2 STATE 2 and DRT 2 STATE 3 === 
  -1.099433E-01   3.045809E-07  -1.713986E-07
  -1.187045E-02  -2.819396E-07   5.553991E-07
  -5.838393E-01  -2.336843E-07   1.375622E-07
   7.164862E-01   1.795706E-07   1.828619E-07
   4.737696E-01  -8.485292E-08  -1.282517E-07
  -5.069205E-01   3.428906E-07  -3.183729E-07
   2.100673E-02  -1.318556E-07  -1.707347E-07
  -1.279289E-01  -8.364988E-08   8.173822E-08
   1.811752E-01   1.321555E-08  -2.678049E-08
   2.413928E-01   1.711935E-08  -6.209039E-08
  -2.461935E-01  -2.063572E-08  -1.142186E-07
  -9.896307E-02   1.474591E-08   2.183140E-08
   5.241412E-02  -4.844029E-08   5.424424E-09
  -9.784234E-04   1.288949E-08   7.048410E-09
===================================

 Norm of the nonadiabatic coupling vector: 
 |h(drt2.state2,drt2.state3)|= 1.23649929384906 

 Cross-check of the non-adiabatic coupling term:
  DeltaE= -0.00906208949999154

  <L>*dE form CIGRD   :    0.0001878662    -0.0000000000    -0.0000000000
  <L>*dE form NADCOUPL:    0.0000000038    -0.0000217222    -0.0009335383
 -------------------------------------------------------------------------
  Difference          :    0.0001878623     0.0000217222     0.0009335383

 NOTE: This test is meaningless at a point of conical intersection!


 -------- NAD. COUPLING for DRT:2 STATE:2 AND DRT:2 STATE:4 --------
opening file =ciudgls.drt2.sp
opening file =ciudgls.drt2.sp
extracted: energy1= -285.9313650089   energy2=-285.8935903295   deltae=-0.0377746794000018
starting cigrd.x -m 200000 at Mon May 16 00:40:51 EDT 2022

 -------------------- cigrd.x ------------------------
 Total energy (ciudg) :    -0.000000000152 
  Effective energy     :    -0.000000001029 
  Delta E              :     0.000000000877 
  --------------------------------------------------- 
 starting tran.x -m 200000  at Mon May 16 00:47:44 EDT 2022

 -------------------- tran.x ------------------------
 --------------------------------------------------- 
  adding keyword NONUC to alaska input
starting pymolcas molcas.input.alaska > molcas.output.alaska  at Mon May 16 00:52:10 EDT 2022

Generating link ln -s ./molcas.OrdInt ORDINT 
 -------------------- alaska ------------------------
 --------------------------------------------------- 
 cartesian gradient by alaska (MOLCAS)

 Calculating the Dx(r,s) term of D[CSF] nonadiabatic coupling term.
dxcalc: INPUT LINE SEPARATOR 
 
starting tran.x -m 200000  at Mon May 16 00:53:08 EDT 2022

 -------------------- tran.x ------------------------
 --------------------------------------------------- 
 starting tdmrunfile.x > tdmrunfilels at Mon May 16 00:53:08 EDT 2022

 -------------------- tdmrunfile.x ------------------------
 --------------------------------------------------- 
 starting pymolcas molcas.input.alaska > molcas.output.alaska  at Mon May 16 00:53:08 EDT 2022

Generating link ln -s ./molcas.OrdInt ORDINT 
 -------------------- alaska ------------------------
 --------------------------------------------------- 
 
 === Non-adiabatic coupling for DRT 2 STATE 2 and DRT 2 STATE 4 === 
   2.079586E-02   9.991277E-09  -7.126179E-08
  -1.332336E-01   2.433703E-08   1.187354E-07
   4.385050E-02  -4.578653E-08   2.350325E-08
   3.014277E-02   5.488910E-09  -1.465478E-07
   5.922333E-02   5.228700E-08   5.571944E-09
   5.817721E-02  -1.914811E-08   3.345139E-08
  -6.368441E-02  -4.103537E-09   3.733409E-11
   3.695857E-03   1.460634E-08  -2.391131E-09
   1.529157E-02  -4.194239E-08   4.414962E-08
  -1.478866E-02   1.064597E-08  -1.004747E-08
  -1.443489E-02  -2.140510E-09  -1.594286E-09
  -4.972942E-03  -7.230556E-09   7.829009E-09
  -2.492269E-03   2.227325E-09  -2.464578E-09
  -7.233901E-03   7.748283E-10   1.056782E-09
===================================

 Norm of the nonadiabatic coupling vector: 
 |h(drt2.state2,drt2.state4)|= 0.180888443014656 

 Cross-check of the non-adiabatic coupling term:
  DeltaE= -0.0377746794000018

  <L>*dE form CIGRD   :    0.0007831069    -0.0000000000    -0.0000000000
  <L>*dE form NADCOUPL:    0.0000000141    -0.0010828083    -0.0001065379
 -------------------------------------------------------------------------
  Difference          :    0.0007830928     0.0010828083     0.0001065379

 NOTE: This test is meaningless at a point of conical intersection!


 -------- NAD. COUPLING for DRT:2 STATE:3 AND DRT:2 STATE:4 --------
opening file =ciudgls.drt2.sp
opening file =ciudgls.drt2.sp
extracted: energy1= -285.9223029194   energy2=-285.8935903295   deltae=-0.0287125899000102
starting cigrd.x -m 200000 at Mon May 16 00:54:05 EDT 2022

 -------------------- cigrd.x ------------------------
 Total energy (ciudg) :    -0.000000000160 
  Effective energy     :    -0.000000006132 
  Delta E              :     0.000000005972 
  --------------------------------------------------- 
 starting tran.x -m 200000  at Mon May 16 01:01:30 EDT 2022

 -------------------- tran.x ------------------------
 --------------------------------------------------- 
  adding keyword NONUC to alaska input
starting pymolcas molcas.input.alaska > molcas.output.alaska  at Mon May 16 01:06:32 EDT 2022

Generating link ln -s ./molcas.OrdInt ORDINT 
 -------------------- alaska ------------------------
 --------------------------------------------------- 
 cartesian gradient by alaska (MOLCAS)

 Calculating the Dx(r,s) term of D[CSF] nonadiabatic coupling term.
dxcalc: INPUT LINE SEPARATOR 
 
starting tran.x -m 200000  at Mon May 16 01:07:37 EDT 2022

 -------------------- tran.x ------------------------
 --------------------------------------------------- 
 starting tdmrunfile.x > tdmrunfilels at Mon May 16 01:07:37 EDT 2022

 -------------------- tdmrunfile.x ------------------------
 --------------------------------------------------- 
 starting pymolcas molcas.input.alaska > molcas.output.alaska  at Mon May 16 01:07:37 EDT 2022

Generating link ln -s ./molcas.OrdInt ORDINT 
 -------------------- alaska ------------------------
 --------------------------------------------------- 
 
 === Non-adiabatic coupling for DRT 2 STATE 3 and DRT 2 STATE 4 === 
   2.660999E-07  -2.505336E-01  -6.725010E-03
  -2.985393E-07   1.631699E+00  -5.135600E-03
   6.626212E-09  -4.539249E-01   9.237273E-02
  -1.009733E-07  -4.485571E-01  -6.921586E-02
   5.477603E-08   3.170975E-01   8.159423E-01
  -4.851829E-08   3.232530E-01  -8.378379E-01
   6.812028E-08  -1.112071E+00   6.002608E-03
   2.038027E-09   9.360535E-03  -1.962160E-02
  -3.188071E-08   7.035732E-03   2.419832E-02
   6.164012E-08  -1.609900E-02  -4.871139E-03
  -4.337248E-08  -1.538431E-02   5.141356E-03
   2.715539E-08   1.306431E-02  -1.404650E-02
   4.323147E-08   1.343368E-02   1.394445E-02
  -6.397691E-09  -9.921682E-03  -1.238762E-04
===================================

 Norm of the nonadiabatic coupling vector: 
 |h(drt2.state3,drt2.state4)|= 2.44087405309567 

 Cross-check of the non-adiabatic coupling term:
  DeltaE= -0.0287125899000102

  <L>*dE form CIGRD   :    0.0005952407    -0.0000000000    -0.0000000000
  <L>*dE form NADCOUPL:    0.0005920383    -0.0000000000    -0.0000000261
 -------------------------------------------------------------------------
  Difference          :    0.0000032024     0.0000000000     0.0000000261

 NOTE: This test is meaningless at a point of conical intersection!



============== timings ===================

   unik.gets.x    
   mcdrt.x        
   mcuft.x        
 * mcscf.x          walltime    0:02:27
   mcpc.x         
   mcpc.x         
   mcpc.x         
   mcpc.x         
   exptvl.x       
   exptvl.x       
   exptvl.x       
   exptvl.x       
   cidrt.x        
   cidrt.x        
 * tran.x           walltime    0:05:17
 * pciudg.x -m 19000   walltime   15:34:04
 * cipc.x           walltime    0:00:14
 * pciudg.x -m 19000   walltime   35:14:30
 * cipc.x           walltime    0:00:22
 * reindex.x        walltime    0:04:11
 * pciudg.x -m 19000   walltime    1:56:36
 * transci.x        walltime    0:02:14
 * transci.x        walltime    0:02:12
 * transci.x        walltime    0:02:11
 * transci.x        walltime    0:02:07
 * transci.x        walltime    0:02:09
 * transci.x        walltime    0:02:08
 * transci.x        walltime    0:04:06
 * transci.x        walltime    0:04:01
 * transci.x        walltime    0:04:07
 * transci.x        walltime    0:04:03
 * transci.x        walltime    0:04:02
 * transci.x        walltime    0:04:02
   exptvl.x       
   exptvl.x       
   exptvl.x       
   exptvl.x       
   exptvl.x       
   exptvl.x       
   exptvl.x       
   exptvl.x       
   mo_convert.x   
   mo_convert.x   
   mo_convert.x   
   mo_convert.x   
   mo_convert.x   
   mo_convert.x   
   mo_convert.x   
   mo_convert.x   
   mo_convert.x   
   mo_convert.x   
   mo_convert.x   
   mo_convert.x   
   mo_convert.x   
   mo_convert.x   
 * cidrt.x          walltime    0:00:07
 * tran.x           walltime    0:05:43
 * cigrd.x          walltime    0:07:10
 * tran.x           walltime    0:05:07
 * cigrd.x          walltime    0:07:44
 * tran.x           walltime    0:05:05
 * cigrd.x          walltime    0:07:28
 * tran.x           walltime    0:04:59
 * cigrd.x          walltime    0:07:36
 * tran.x           walltime    0:05:10
 * cigrd.x          walltime    0:07:38
 * tran.x           walltime    0:05:15
 * cigrd.x          walltime    0:07:41
 * tran.x           walltime    0:05:08
 * cigrd.x          walltime    0:07:47
 * tran.x           walltime    0:05:07
 * cigrd.x          walltime    0:07:47
 * tran.x           walltime    0:05:13
 * cigrd.x          walltime    0:07:05
 * tran.x           walltime    0:04:55
   tran.x         
   tdmrunfile.x   
 * cigrd.x          walltime    0:07:18
 * tran.x           walltime    0:05:01
   tran.x         
   tdmrunfile.x   
 * cigrd.x          walltime    0:07:13
 * tran.x           walltime    0:04:43
   tran.x         
   tdmrunfile.x   
 * cigrd.x          walltime    0:07:22
 * tran.x           walltime    0:04:44
   tran.x         
   tdmrunfile.x   
 * cigrd.x          walltime    0:07:31
 * tran.x           walltime    0:05:01
   tran.x         
   tdmrunfile.x   
 * cigrd.x          walltime    0:07:35
 * tran.x           walltime    0:04:53
   tran.x         
   tdmrunfile.x   
 * cigrd.x          walltime    0:07:47
 * tran.x           walltime    0:04:58
   tran.x         
   tdmrunfile.x   
 * cigrd.x          walltime    0:07:36
 * tran.x           walltime    0:04:56
   tran.x         
   tdmrunfile.x   
 * cigrd.x          walltime    0:07:10
 * tran.x           walltime    0:04:56
   tran.x         
   tdmrunfile.x   
 * cigrd.x          walltime    0:07:32
 * tran.x           walltime    0:04:46
   tran.x         
   tdmrunfile.x   
 * cigrd.x          walltime    0:06:52
 * tran.x           walltime    0:04:25
   tran.x         
   tdmrunfile.x   
 * cigrd.x          walltime    0:07:24
 * tran.x           walltime    0:05:01
   tran.x         
   tdmrunfile.x   

==========================================

