[Molden Format]
[Atoms] AU
  N     1    7     0.0000000000   -4.2907334100    0.0000000000        
  C     2    6     0.0000000000   -1.7772236300    0.0000000000        
  C     3    6    -2.3389203600   -0.4111016300    0.0000000000        
  C     4    6     2.3389203600   -0.4111016300    0.0000000000        
  C     5    6    -2.2998668500    2.1639215300    0.0000000000        
  C     6    6     2.2998668500    2.1639215300    0.0000000000        
  C     7    6     0.0000000000    3.4755251800    0.0000000000        
  H     8    1    -2.7341110200   -5.9774504400    0.0000000000        
  H     9    1     1.9299607200   -5.4813572000    0.0000000000        
  H    10    1    -4.0745407300   -1.4447408500    0.0000000000        
  H    11    1     4.0745407300   -1.4447408500    0.0000000000        
  H    12    1    -4.0420632100    3.1963889500    0.0000000000        
  H    13    1     4.0420632100    3.1963889500    0.0000000000        
  H    14    1     0.0000000000    5.5020335600    0.0000000000        
[5D]
[7F]
[GTO]
  1  0
   s    12 1.00
  0.114200D+05  0.172695D-04
  0.171200D+04  0.134411D-03
  0.389300D+03  0.694561D-03
  0.110000D+03  0.278531D-02
  0.355700D+02  0.863457D-02
  0.125400D+02  0.199805D-01
  0.464400D+01  0.262908D-01
  0.129300D+01 -0.243845D-01
  0.511800D+00 -0.924934D-01
  0.178700D+00 -0.339683D+00
  0.246240D-01  0.345111D+00
  0.112530D-01  0.752750D+00
   s    10 1.00
  0.114200D+05  0.523000D-03
  0.171200D+04  0.404500D-02
  0.389300D+03  0.207750D-01
  0.110000D+03  0.807269D-01
  0.355700D+02  0.233074D+00
  0.125400D+02  0.433501D+00
  0.464400D+01  0.347472D+00
  0.129300D+01  0.412620D-01
  0.511800D+00 -0.850799D-02
  0.178700D+00  0.238400D-02
   s    10 1.00
  0.114200D+05 -0.115000D-03
  0.171200D+04 -0.895000D-03
  0.389300D+03 -0.462400D-02
  0.110000D+03 -0.185280D-01
  0.355700D+02 -0.573390D-01
  0.125400D+02 -0.132076D+00
  0.464400D+01 -0.172510D+00
  0.129300D+01  0.151814D+00
  0.511800D+00  0.599944D+00
  0.178700D+00  0.387462D+00
   s     1 1.00
  0.129300D+01  0.100000D+01
   s     1 1.00
  0.178700D+00  0.100000D+01
   p     5 1.00
  0.266300D+02  0.146700D-01
  0.594800D+01  0.917640D-01
  0.174200D+01  0.298683D+00
  0.555000D+00  0.498487D+00
  0.172500D+00  0.337023D+00
   p     1 1.00
  0.174200D+01  0.100000D+01
   p     1 1.00
  0.555000D+00  0.100000D+01
   d     1 1.00
  0.165400D+01  0.100000D+01
   d     1 1.00
  0.469000D+00  0.100000D+01
   f     1 1.00
  0.109300D+01  0.100000D+01
  
  2  0
   s    10 1.00
  0.823600D+04  0.531000D-03
  0.123500D+04  0.410800D-02
  0.280800D+03  0.210870D-01
  0.792700D+02  0.818530D-01
  0.255900D+02  0.234817D+00
  0.899700D+01  0.434401D+00
  0.331900D+01  0.346129D+00
  0.905900D+00  0.393780D-01
  0.364300D+00 -0.898300D-02
  0.128500D+00  0.238500D-02
   s    10 1.00
  0.823600D+04 -0.113000D-03
  0.123500D+04 -0.878000D-03
  0.280800D+03 -0.454000D-02
  0.792700D+02 -0.181330D-01
  0.255900D+02 -0.557600D-01
  0.899700D+01 -0.126895D+00
  0.331900D+01 -0.170352D+00
  0.905900D+00  0.140382D+00
  0.364300D+00  0.598684D+00
  0.128500D+00  0.395389D+00
   s     1 1.00
  0.905900D+00  0.100000D+01
   s     1 1.00
  0.364300D+00  0.100000D+01
   p     5 1.00
  0.187100D+02  0.140310D-01
  0.413300D+01  0.868660D-01
  0.120000D+01  0.290216D+00
  0.382700D+00  0.501008D+00
  0.120900D+00  0.343406D+00
   p     1 1.00
  0.382700D+00  0.100000D+01
   p     1 1.00
  0.120900D+00  0.100000D+01
   d     1 1.00
  0.109700D+01  0.100000D+01
   d     1 1.00
  0.318000D+00  0.100000D+01
   f     1 1.00
  0.761000D+00  0.100000D+01
  
  3  0
   s    10 1.00
  0.823600D+04  0.531000D-03
  0.123500D+04  0.410800D-02
  0.280800D+03  0.210870D-01
  0.792700D+02  0.818530D-01
  0.255900D+02  0.234817D+00
  0.899700D+01  0.434401D+00
  0.331900D+01  0.346129D+00
  0.905900D+00  0.393780D-01
  0.364300D+00 -0.898300D-02
  0.128500D+00  0.238500D-02
   s    10 1.00
  0.823600D+04 -0.113000D-03
  0.123500D+04 -0.878000D-03
  0.280800D+03 -0.454000D-02
  0.792700D+02 -0.181330D-01
  0.255900D+02 -0.557600D-01
  0.899700D+01 -0.126895D+00
  0.331900D+01 -0.170352D+00
  0.905900D+00  0.140382D+00
  0.364300D+00  0.598684D+00
  0.128500D+00  0.395389D+00
   s     1 1.00
  0.905900D+00  0.100000D+01
   s     1 1.00
  0.364300D+00  0.100000D+01
   p     5 1.00
  0.187100D+02  0.140310D-01
  0.413300D+01  0.868660D-01
  0.120000D+01  0.290216D+00
  0.382700D+00  0.501008D+00
  0.120900D+00  0.343406D+00
   p     1 1.00
  0.382700D+00  0.100000D+01
   p     1 1.00
  0.120900D+00  0.100000D+01
   d     1 1.00
  0.109700D+01  0.100000D+01
   d     1 1.00
  0.318000D+00  0.100000D+01
   f     1 1.00
  0.761000D+00  0.100000D+01
  
  4  0
   s    10 1.00
  0.823600D+04  0.531000D-03
  0.123500D+04  0.410800D-02
  0.280800D+03  0.210870D-01
  0.792700D+02  0.818530D-01
  0.255900D+02  0.234817D+00
  0.899700D+01  0.434401D+00
  0.331900D+01  0.346129D+00
  0.905900D+00  0.393780D-01
  0.364300D+00 -0.898300D-02
  0.128500D+00  0.238500D-02
   s    10 1.00
  0.823600D+04 -0.113000D-03
  0.123500D+04 -0.878000D-03
  0.280800D+03 -0.454000D-02
  0.792700D+02 -0.181330D-01
  0.255900D+02 -0.557600D-01
  0.899700D+01 -0.126895D+00
  0.331900D+01 -0.170352D+00
  0.905900D+00  0.140382D+00
  0.364300D+00  0.598684D+00
  0.128500D+00  0.395389D+00
   s     1 1.00
  0.905900D+00  0.100000D+01
   s     1 1.00
  0.364300D+00  0.100000D+01
   p     5 1.00
  0.187100D+02  0.140310D-01
  0.413300D+01  0.868660D-01
  0.120000D+01  0.290216D+00
  0.382700D+00  0.501008D+00
  0.120900D+00  0.343406D+00
   p     1 1.00
  0.382700D+00  0.100000D+01
   p     1 1.00
  0.120900D+00  0.100000D+01
   d     1 1.00
  0.109700D+01  0.100000D+01
   d     1 1.00
  0.318000D+00  0.100000D+01
   f     1 1.00
  0.761000D+00  0.100000D+01
  
  5  0
   s    10 1.00
  0.823600D+04  0.531000D-03
  0.123500D+04  0.410800D-02
  0.280800D+03  0.210870D-01
  0.792700D+02  0.818530D-01
  0.255900D+02  0.234817D+00
  0.899700D+01  0.434401D+00
  0.331900D+01  0.346129D+00
  0.905900D+00  0.393780D-01
  0.364300D+00 -0.898300D-02
  0.128500D+00  0.238500D-02
   s    10 1.00
  0.823600D+04 -0.113000D-03
  0.123500D+04 -0.878000D-03
  0.280800D+03 -0.454000D-02
  0.792700D+02 -0.181330D-01
  0.255900D+02 -0.557600D-01
  0.899700D+01 -0.126895D+00
  0.331900D+01 -0.170352D+00
  0.905900D+00  0.140382D+00
  0.364300D+00  0.598684D+00
  0.128500D+00  0.395389D+00
   s     1 1.00
  0.905900D+00  0.100000D+01
   s     1 1.00
  0.364300D+00  0.100000D+01
   p     5 1.00
  0.187100D+02  0.140310D-01
  0.413300D+01  0.868660D-01
  0.120000D+01  0.290216D+00
  0.382700D+00  0.501008D+00
  0.120900D+00  0.343406D+00
   p     1 1.00
  0.382700D+00  0.100000D+01
   p     1 1.00
  0.120900D+00  0.100000D+01
   d     1 1.00
  0.109700D+01  0.100000D+01
   d     1 1.00
  0.318000D+00  0.100000D+01
   f     1 1.00
  0.761000D+00  0.100000D+01
  
  6  0
   s    10 1.00
  0.823600D+04  0.531000D-03
  0.123500D+04  0.410800D-02
  0.280800D+03  0.210870D-01
  0.792700D+02  0.818530D-01
  0.255900D+02  0.234817D+00
  0.899700D+01  0.434401D+00
  0.331900D+01  0.346129D+00
  0.905900D+00  0.393780D-01
  0.364300D+00 -0.898300D-02
  0.128500D+00  0.238500D-02
   s    10 1.00
  0.823600D+04 -0.113000D-03
  0.123500D+04 -0.878000D-03
  0.280800D+03 -0.454000D-02
  0.792700D+02 -0.181330D-01
  0.255900D+02 -0.557600D-01
  0.899700D+01 -0.126895D+00
  0.331900D+01 -0.170352D+00
  0.905900D+00  0.140382D+00
  0.364300D+00  0.598684D+00
  0.128500D+00  0.395389D+00
   s     1 1.00
  0.905900D+00  0.100000D+01
   s     1 1.00
  0.364300D+00  0.100000D+01
   p     5 1.00
  0.187100D+02  0.140310D-01
  0.413300D+01  0.868660D-01
  0.120000D+01  0.290216D+00
  0.382700D+00  0.501008D+00
  0.120900D+00  0.343406D+00
   p     1 1.00
  0.382700D+00  0.100000D+01
   p     1 1.00
  0.120900D+00  0.100000D+01
   d     1 1.00
  0.109700D+01  0.100000D+01
   d     1 1.00
  0.318000D+00  0.100000D+01
   f     1 1.00
  0.761000D+00  0.100000D+01
  
  7  0
   s    10 1.00
  0.823600D+04  0.531000D-03
  0.123500D+04  0.410800D-02
  0.280800D+03  0.210870D-01
  0.792700D+02  0.818530D-01
  0.255900D+02  0.234817D+00
  0.899700D+01  0.434401D+00
  0.331900D+01  0.346129D+00
  0.905900D+00  0.393780D-01
  0.364300D+00 -0.898300D-02
  0.128500D+00  0.238500D-02
   s    10 1.00
  0.823600D+04 -0.113000D-03
  0.123500D+04 -0.878000D-03
  0.280800D+03 -0.454000D-02
  0.792700D+02 -0.181330D-01
  0.255900D+02 -0.557600D-01
  0.899700D+01 -0.126895D+00
  0.331900D+01 -0.170352D+00
  0.905900D+00  0.140382D+00
  0.364300D+00  0.598684D+00
  0.128500D+00  0.395389D+00
   s     1 1.00
  0.905900D+00  0.100000D+01
   s     1 1.00
  0.364300D+00  0.100000D+01
   p     5 1.00
  0.187100D+02  0.140310D-01
  0.413300D+01  0.868660D-01
  0.120000D+01  0.290216D+00
  0.382700D+00  0.501008D+00
  0.120900D+00  0.343406D+00
   p     1 1.00
  0.382700D+00  0.100000D+01
   p     1 1.00
  0.120900D+00  0.100000D+01
   d     1 1.00
  0.109700D+01  0.100000D+01
   d     1 1.00
  0.318000D+00  0.100000D+01
   f     1 1.00
  0.761000D+00  0.100000D+01
  
  8  0
   s     4 1.00
  0.130100D+02  0.196850D-01
  0.196200D+01  0.137977D+00
  0.444600D+00  0.478148D+00
  0.122000D+00  0.501240D+00
   s     1 1.00
  0.122000D+00  0.100000D+01
   p     1 1.00
  0.727000D+00  0.100000D+01
  
  9  0
   s     4 1.00
  0.130100D+02  0.196850D-01
  0.196200D+01  0.137977D+00
  0.444600D+00  0.478148D+00
  0.122000D+00  0.501240D+00
   s     1 1.00
  0.122000D+00  0.100000D+01
   p     1 1.00
  0.727000D+00  0.100000D+01
  
 10  0
   s     4 1.00
  0.130100D+02  0.196850D-01
  0.196200D+01  0.137977D+00
  0.444600D+00  0.478148D+00
  0.122000D+00  0.501240D+00
   s     1 1.00
  0.122000D+00  0.100000D+01
   p     1 1.00
  0.727000D+00  0.100000D+01
  
 11  0
   s     4 1.00
  0.130100D+02  0.196850D-01
  0.196200D+01  0.137977D+00
  0.444600D+00  0.478148D+00
  0.122000D+00  0.501240D+00
   s     1 1.00
  0.122000D+00  0.100000D+01
   p     1 1.00
  0.727000D+00  0.100000D+01
  
 12  0
   s     4 1.00
  0.130100D+02  0.196850D-01
  0.196200D+01  0.137977D+00
  0.444600D+00  0.478148D+00
  0.122000D+00  0.501240D+00
   s     1 1.00
  0.122000D+00  0.100000D+01
   p     1 1.00
  0.727000D+00  0.100000D+01
  
 13  0
   s     4 1.00
  0.130100D+02  0.196850D-01
  0.196200D+01  0.137977D+00
  0.444600D+00  0.478148D+00
  0.122000D+00  0.501240D+00
   s     1 1.00
  0.122000D+00  0.100000D+01
   p     1 1.00
  0.727000D+00  0.100000D+01
  
 14  0
   s     4 1.00
  0.130100D+02  0.196850D-01
  0.196200D+01  0.137977D+00
  0.444600D+00  0.478148D+00
  0.122000D+00  0.501240D+00
   s     1 1.00
  0.122000D+00  0.100000D+01
   p     1 1.00
  0.727000D+00  0.100000D+01
  
[MO]
 Sym= __1_a__
 Ene=  0.000000000000000E+000
 Spin= Alpha
 Occup=    2.00000000000000     
                     1  5.482180727575950E-005
                     2  0.998597334896782     
                     3  1.732518801756400E-003
                     4  1.483978211342040E-003
                     5  4.709578998630890E-003
                     6  3.340215637955790E-003
                     7  5.930579295504030E-003
                     8 -3.562707004315850E-011
                     9 -7.531736874676620E-004
                    10 -4.442427513397500E-004
                    11  2.523625409813260E-011
                    12 -2.403801142460920E-003
                    13 -1.603052360371000E-003
                    14  2.107120019388620E-011
                    15 -7.472334747786550E-005
                    16 -9.304705829700430E-013
                    17 -1.813409464902120E-012
                    18 -2.346639967531840E-004
                    19 -5.215444072599540E-005
                    20  1.894270261971873E-004
                    21 -1.213003754113570E-013
                    22 -6.617278090556010E-013
                    23 -2.092002308533180E-004
                    24  5.736289492699790E-004
                    25 -1.017481791114636E-012
                    26  8.617205091513514E-006
                    27 -5.469808875129699E-005
                    28 -1.042489425573348E-012
                    29 -3.446446416535420E-013
                    30  2.955893933772077E-005
                    31 -1.014296174279200E-004
                    32 -3.016497861823870E-004
                    33  1.291997253529430E-003
                    34  2.420974348797620E-004
                    35 -2.359908133170760E-004
                    36 -1.716345711211750E-004
                    37 -4.490731908227800E-003
                    38  1.222158201687510E-011
                    39  5.583535479554990E-004
                    40  1.254912013506990E-004
                    41  8.117497706249470E-013
                    42 -2.342876981096070E-003
                    43  5.218695623680180E-003
                    44  1.732075694471750E-012
                    45 -2.493942299203408E-005
                    46 -7.995850326390880E-013
                    47 -2.584821623036330E-012
                    48 -2.342645823767760E-004
                    49 -7.334747171140710E-006
                    50 -2.670733598273861E-004
                    51  4.554331807339050E-012
                    52  8.107688947443691E-012
                    53 -1.471731065358856E-005
                    54  8.561446701426400E-004
                    55  2.282177502714022E-012
                    56 -1.499546765341924E-005
                    57 -4.376815816789419E-005
                    58  3.905498951528180E-012
                    59  2.118177133971230E-012
                    60 -1.510635007631097E-005
                    61 -1.124487283916995E-004
                    62 -5.041011930951710E-004
                    63 -2.268478938380220E-003
                    64 -1.022404211285470E-004
                    65  2.177931736336100E-003
                    66 -6.692282328151990E-004
                    67  4.619684225814240E-004
                    68  1.842073791454260E-011
                    69  4.944167034203810E-004
                    70  7.756944366942280E-004
                    71 -9.816187742925679E-012
                    72 -1.705522021749440E-003
                    73  7.698144770533660E-004
                    74 -1.459240603741910E-012
                    75 -4.227708146335231E-005
                    76  1.980767074197630E-012
                    77 -1.435921152582080E-012
                    78 -8.285216018901581E-005
                    79 -3.216628791075970E-005
                    80 -1.548338421352558E-004
                    81 -2.482431588764000E-012
                    82  1.067445633903610E-011
                    83  1.015916432177058E-004
                    84  7.244072051492630E-005
                    85 -1.030958811609515E-012
                    86  7.941870143263179E-006
                    87 -4.546721371319021E-005
                    88 -2.680486161059940E-012
                    89  1.705170238562010E-013
                    90 -1.342821861227083E-005
                    91 -1.555863466662727E-004
                    92 -1.047278354971430E-004
                    93 -8.653880222434440E-004
                    94  2.151482618862450E-004
                    95 -4.169331588962530E-004
                    96  5.104176229172240E-004
                    97  5.985776262072720E-004
                    98 -1.978821489371580E-011
                    99  4.553100986352470E-004
                   100  2.665215636229700E-004
                   101  8.486081392927591E-012
                   102  4.707621991853460E-004
                   103 -1.454926878128070E-003
                   104 -2.181502696685690E-012
                   105 -2.701748907669567E-006
                   106 -3.086995008044670E-012
                   107  2.683917329753590E-012
                   108 -5.887197947051140E-005
                   109 -2.059475281822460E-005
                   110  1.472154785050317E-004
                   111  4.501492249356610E-012
                   112 -5.266451578753060E-012
                   113 -1.492499174273356E-004
                   114 -3.471360831273910E-005
                   115 -2.731587935645650E-013
                   116 -2.544342065008714E-005
                   117 -3.101303554867659E-005
                   118  5.836467866294680E-013
                   119 -1.454402111369790E-012
                   120  1.662817465530043E-005
                   121 -1.992498853474079E-005
                   122 -2.666568343711180E-004
                   123 -5.527679658308960E-004
                   124  1.725565968583580E-004
                   125  3.896487668106390E-004
                   126 -1.287996254282300E-005
                   127 -5.254449732211040E-004
                   128  7.393825385833260E-012
                   129  2.009169893772570E-004
                   130  6.024139780390940E-004
                   131 -3.674280074693580E-012
                   132  3.608953644875900E-004
                   133  2.024040677833270E-003
                   134 -1.474816748860260E-011
                   135  1.141412005056938E-005
                   136 -3.393373466787700E-012
                   137  7.160008647518530E-013
                   138  4.436224641164300E-005
                   139  3.935861953486370E-007
                   140  2.074872895324149E-004
                   141  3.769329756743630E-012
                   142  7.671841762228660E-012
                   143  3.552927637471560E-004
                   144  2.535981032315560E-004
                   145  3.937473078458056E-012
                   146 -8.538645628889547E-006
                   147 -6.123182140373196E-005
                   148  8.222983804698200E-013
                   149 -2.481305031864500E-013
                   150 -2.161741863430107E-005
                   151 -4.940969975756730E-005
                   152 -1.731419783161670E-004
                   153 -2.781550902192040E-004
                   154  2.952017838815430E-005
                   155  3.904660459455420E-004
                   156 -2.765286519860740E-005
                   157 -4.359871953566700E-004
                   158  3.361722041811610E-012
                   159  1.495204616580140E-005
                   160  2.693306650718510E-005
                   161  1.371017616800940E-012
                   162  7.127879552252520E-004
                   163 -3.326551088338950E-004
                   164 -8.792710256783940E-013
                   165 -3.509091678260404E-006
                   166 -3.827505751027020E-012
                   167 -9.377736190431071E-014
                   168 -8.909292093880500E-006
                   169  5.916282602935170E-006
                   170  4.900705594544894E-005
                   171  8.007397699187131E-012
                   172  3.714928170029750E-012
                   173 -2.566270758233960E-006
                   174 -1.702217577615790E-005
                   175 -5.429471361996592E-012
                   176  4.785668269929622E-006
                   177 -5.726004772871664E-006
                   178 -2.104336566162400E-012
                   179  1.616170367225090E-012
                   180 -2.605323753115716E-005
                   181 -5.265423392177405E-006
                   182 -1.633535304124640E-004
                   183 -4.655125680767060E-004
                   184  4.935784502718120E-005
                   185  2.346693648285110E-004
                   186 -3.901157095493610E-005
                   187 -5.348667654675940E-005
                   188  3.497801823886040E-012
                   189  2.037596139102780E-004
                   190  6.219175770906020E-005
                   191  5.918758680626490E-013
                   192  1.323307975737530E-003
                   193 -1.541501402464950E-004
                   194  2.758451567630040E-012
                   195 -1.312760065019290E-006
                   196  4.950608141659050E-013
                   197 -1.218850936407110E-013
                   198 -1.366134841571576E-005
                   199  7.586368015883070E-006
                   200  2.281982510161233E-005
                   201  3.854606123981920E-012
                   202  2.570439193925030E-012
                   203 -8.282442707344100E-005
                   204 -1.843356314187520E-004
                   205  8.931118715036100E-013
                   206 -5.431642046798112E-006
                   207 -6.057505258203171E-006
                   208 -2.793956463955500E-012
                   209 -2.422877822351810E-012
                   210  1.138299030840176E-005
                   211 -2.937836995559564E-006
                   212  2.064367078463570E-005
                   213  8.440477890467770E-005
                   214  9.981008890986600E-005
                   215  1.108719750782340E-004
                   216  8.152042713170770E-013
                   217  2.137281282453890E-004
                   218 -8.607424629966650E-004
                   219 -3.802192101658820E-004
                   220  1.889615923207800E-004
                   221 -2.956126786063360E-012
                   222 -4.271698858413000E-004
                   223 -6.157630776479530E-004
                   224  6.089029209999110E-006
                   225 -7.127120573548890E-005
                   226  9.232002395570131E-013
                   227 -2.103841720674410E-004
                   228 -4.850646841670160E-004
                   229 -4.240596624774870E-006
                   230 -1.154483715518000E-005
                   231 -2.869353142816580E-012
                   232 -5.720308658624310E-005
                   233 -5.649572202012149E-004
                   234  6.926341005468680E-006
                   235 -4.038343903456200E-006
                   236 -1.382527472107290E-012
                   237 -1.576459910442340E-004
                   238 -3.708514255090970E-004
                   239  8.056642577049330E-006
                   240  3.539193661441600E-006
                   241  7.412349802779040E-013
                   242  1.475133700268730E-005
                   243 -3.333505016615480E-005
                   244 -3.965549504780810E-007
                   245  2.105096021608970E-005
                   246 -2.714991991334110E-012
 Sym= __2_a__
 Ene=  0.000000000000000E+000
 Spin= Alpha
 Occup=    2.00000000000000     
                     1 -5.192865693773080E-005
                     2 -3.417579935813300E-004
                     3  2.915576091892280E-003
                     4  1.586887656608810E-004
                     5  1.337701393471390E-003
                     6 -2.272707554657280E-004
                     7  2.917746069009680E-003
                     8 -8.851322374171099E-012
                     9 -5.258099813968700E-005
                    10 -1.165441002505430E-004
                    11 -2.118910616813910E-012
                    12  5.860640448546100E-005
                    13 -4.007552979133390E-004
                    14  1.628048715346820E-012
                    15  3.305920938497520E-005
                    16  2.394287279432480E-013
                    17 -6.255448854897820E-013
                    18 -4.810651222284000E-005
                    19  1.117592825183320E-005
                    20 -1.163393775766417E-004
                    21  1.354421419841530E-012
                    22  1.435717418890170E-012
                    23  1.355205882699488E-004
                    24 -1.580770892682970E-005
                    25  7.750027320354636E-013
                    26 -1.394798377487499E-005
                    27  8.832437806003094E-005
                    28 -8.589595743397100E-013
                    29 -3.630775028948690E-013
                    30 -1.159660745340557E-005
                    31  1.490225168166626E-004
                    32   1.00102592975390     
                    33  9.298244584164769E-003
                    34  2.724612146764220E-003
                    35 -8.131247031203119E-003
                    36 -1.166822212118170E-004
                    37 -3.607970971902190E-003
                    38  7.642585423805030E-012
                    39  1.469848314464790E-004
                    40  4.820078261802610E-004
                    41 -2.887046825068210E-012
                    42  2.630719789627590E-005
                    43  4.220635537126580E-003
                    44 -3.554839406338550E-012
                    45 -5.685173911581609E-004
                    46  9.997067651343040E-013
                    47  6.314183977135280E-013
                    48 -1.996185896932576E-004
                    49 -2.689201742823660E-006
                    50  5.494592280812402E-004
                    51  2.290974756786770E-012
                    52 -2.971393391266190E-012
                    53 -8.823075834034220E-004
                    54  5.010555567628900E-005
                    55  6.822760286386898E-013
                    56 -5.412810656047753E-006
                    57  9.324020488208371E-005
                    58  3.978222583835280E-013
                    59  7.544065587325180E-013
                    60  4.527147034120855E-006
                    61  3.987422959494914E-004
                    62  9.125726419578629E-003
                    63 -2.089803610368710E-003
                    64 -2.972776813807330E-004
                    65  3.069281805732950E-003
                    66 -2.360836084774480E-005
                    67  1.171552678718940E-004
                    68 -9.277550052881870E-012
                    69  7.342505039803620E-004
                    70 -3.739856944412100E-006
                    71  1.479125579428110E-012
                    72 -2.056343608440300E-003
                    73  7.991196424128681E-005
                    74  5.361628555297370E-012
                    75  2.644976129876535E-005
                    76  1.306366738201430E-012
                    77 -8.792399253031970E-013
                    78 -2.307132344029480E-006
                    79  1.664763613426550E-006
                    80 -4.131315023744963E-004
                    81 -8.496577422957060E-013
                    82  7.356286851307850E-012
                    83 -5.855376758630020E-004
                    84 -3.751364265527750E-004
                    85 -3.083676314434529E-012
                    86  3.253142694547061E-005
                    87 -5.888208667282854E-005
                    88  3.475639370297920E-013
                    89 -3.430536296729810E-012
                    90  5.106998605703763E-005
                    91  1.403845418835013E-004
                    92  9.719007661769710E-003
                    93 -2.060914625243400E-003
                    94 -2.789242292766710E-004
                    95  3.006367374924700E-003
                    96  7.347113971408720E-006
                    97  8.032005965265420E-005
                    98 -4.301473149005190E-012
                    99 -6.572563872137051E-004
                   100  5.722803365451970E-005
                   101 -4.190429336840350E-012
                   102  2.030337882827470E-003
                   103  5.883843189097540E-005
                   104  1.258128069639790E-012
                   105  3.103105291617867E-005
                   106 -3.244757950923270E-012
                   107  6.265390855682660E-013
                   108 -5.313687750670840E-006
                   109 -7.508361378607530E-006
                   110 -4.097260355453707E-004
                   111 -2.140527915930960E-012
                   112 -1.934016461677350E-012
                   113 -6.111023624249000E-004
                   114  3.593143557520780E-004
                   115 -6.081754990068719E-013
                   116 -3.256639153010115E-005
                   117 -5.987228601168277E-005
                   118  1.008418924750146E-012
                   119  7.448361724064460E-013
                   120 -4.937851744075923E-005
                   121  1.371542570599745E-004
                   122 -1.544966659356370E-004
                   123 -6.707807270827050E-004
                   124  2.255683119493450E-004
                   125 -1.082953008469230E-004
                   126 -1.897695192438830E-006
                   127 -3.424596112891270E-004
                   128 -5.258357811450640E-012
                   129 -6.212387470368150E-005
                   130  5.391142403443250E-004
                   131  1.332076149397910E-012
                   132  3.257113147831460E-004
                   133  7.626360078976160E-004
                   134  2.115682949092970E-012
                   135  1.889147884116948E-005
                   136 -2.810038456050480E-015
                   137  2.010866114308620E-012
                   138  3.681215071197920E-006
                   139  5.288970466867940E-005
                   140  1.365715304444632E-004
                   141  5.703772206256410E-012
                   142 -1.200200329035120E-012
                   143  2.426404632442060E-004
                   144 -1.819177660697770E-004
                   145 -1.057378291265978E-012
                   146  7.179580252275287E-006
                   147 -3.358308108934466E-005
                   148  1.135305039657240E-012
                   149  4.029864920906060E-012
                   150 -4.760761036702459E-005
                   151  2.859812776750723E-005
                   152 -1.391499680896020E-004
                   153 -6.777571755230550E-004
                   154  2.298869028416850E-004
                   155 -1.365495797891230E-004
                   156  1.164769479762320E-006
                   157 -3.331125433109970E-004
                   158 -3.891311845539230E-012
                   159  4.995221859881550E-005
                   160  5.630808608550810E-004