[Molden Format]
[Atoms] AU
  N     1    7     0.0000000000   -4.2907334100    0.0000000000        
  C     2    6     0.0000000000   -1.7772236300    0.0000000000        
  C     3    6    -2.3389203600   -0.4111016300    0.0000000000        
  C     4    6     2.3389203600   -0.4111016300    0.0000000000        
  C     5    6    -2.2998668500    2.1639215300    0.0000000000        
  C     6    6     2.2998668500    2.1639215300    0.0000000000        
  C     7    6     0.0000000000    3.4755251800    0.0000000000        
  H     8    1    -2.7341110200   -5.9774504400    0.0000000000        
  H     9    1     1.9299607200   -5.4813572000    0.0000000000        
  H    10    1    -4.0745407300   -1.4447408500    0.0000000000        
  H    11    1     4.0745407300   -1.4447408500    0.0000000000        
  H    12    1    -4.0420632100    3.1963889500    0.0000000000        
  H    13    1     4.0420632100    3.1963889500    0.0000000000        
  H    14    1     0.0000000000    5.5020335600    0.0000000000        
[5D]
[7F]
[GTO]
  1  0
   s    12 1.00
  0.114200D+05  0.172695D-04
  0.171200D+04  0.134411D-03
  0.389300D+03  0.694561D-03
  0.110000D+03  0.278531D-02
  0.355700D+02  0.863457D-02
  0.125400D+02  0.199805D-01
  0.464400D+01  0.262908D-01
  0.129300D+01 -0.243845D-01
  0.511800D+00 -0.924934D-01
  0.178700D+00 -0.339683D+00
  0.246240D-01  0.345111D+00
  0.112530D-01  0.752750D+00
   s    10 1.00
  0.114200D+05  0.523000D-03
  0.171200D+04  0.404500D-02
  0.389300D+03  0.207750D-01
  0.110000D+03  0.807269D-01
  0.355700D+02  0.233074D+00
  0.125400D+02  0.433501D+00
  0.464400D+01  0.347472D+00
  0.129300D+01  0.412620D-01
  0.511800D+00 -0.850799D-02
  0.178700D+00  0.238400D-02
   s    10 1.00
  0.114200D+05 -0.115000D-03
  0.171200D+04 -0.895000D-03
  0.389300D+03 -0.462400D-02
  0.110000D+03 -0.185280D-01
  0.355700D+02 -0.573390D-01
  0.125400D+02 -0.132076D+00
  0.464400D+01 -0.172510D+00
  0.129300D+01  0.151814D+00
  0.511800D+00  0.599944D+00
  0.178700D+00  0.387462D+00
   s     1 1.00
  0.129300D+01  0.100000D+01
   s     1 1.00
  0.178700D+00  0.100000D+01
   p     5 1.00
  0.266300D+02  0.146700D-01
  0.594800D+01  0.917640D-01
  0.174200D+01  0.298683D+00
  0.555000D+00  0.498487D+00
  0.172500D+00  0.337023D+00
   p     1 1.00
  0.174200D+01  0.100000D+01
   p     1 1.00
  0.555000D+00  0.100000D+01
   d     1 1.00
  0.165400D+01  0.100000D+01
   d     1 1.00
  0.469000D+00  0.100000D+01
   f     1 1.00
  0.109300D+01  0.100000D+01
  
  2  0
   s    10 1.00
  0.823600D+04  0.531000D-03
  0.123500D+04  0.410800D-02
  0.280800D+03  0.210870D-01
  0.792700D+02  0.818530D-01
  0.255900D+02  0.234817D+00
  0.899700D+01  0.434401D+00
  0.331900D+01  0.346129D+00
  0.905900D+00  0.393780D-01
  0.364300D+00 -0.898300D-02
  0.128500D+00  0.238500D-02
   s    10 1.00
  0.823600D+04 -0.113000D-03
  0.123500D+04 -0.878000D-03
  0.280800D+03 -0.454000D-02
  0.792700D+02 -0.181330D-01
  0.255900D+02 -0.557600D-01
  0.899700D+01 -0.126895D+00
  0.331900D+01 -0.170352D+00
  0.905900D+00  0.140382D+00
  0.364300D+00  0.598684D+00
  0.128500D+00  0.395389D+00
   s     1 1.00
  0.905900D+00  0.100000D+01
   s     1 1.00
  0.364300D+00  0.100000D+01
   p     5 1.00
  0.187100D+02  0.140310D-01
  0.413300D+01  0.868660D-01
  0.120000D+01  0.290216D+00
  0.382700D+00  0.501008D+00
  0.120900D+00  0.343406D+00
   p     1 1.00
  0.382700D+00  0.100000D+01
   p     1 1.00
  0.120900D+00  0.100000D+01
   d     1 1.00
  0.109700D+01  0.100000D+01
   d     1 1.00
  0.318000D+00  0.100000D+01
   f     1 1.00
  0.761000D+00  0.100000D+01
  
  3  0
   s    10 1.00
  0.823600D+04  0.531000D-03
  0.123500D+04  0.410800D-02
  0.280800D+03  0.210870D-01
  0.792700D+02  0.818530D-01
  0.255900D+02  0.234817D+00
  0.899700D+01  0.434401D+00
  0.331900D+01  0.346129D+00
  0.905900D+00  0.393780D-01
  0.364300D+00 -0.898300D-02
  0.128500D+00  0.238500D-02
   s    10 1.00
  0.823600D+04 -0.113000D-03
  0.123500D+04 -0.878000D-03
  0.280800D+03 -0.454000D-02
  0.792700D+02 -0.181330D-01
  0.255900D+02 -0.557600D-01
  0.899700D+01 -0.126895D+00
  0.331900D+01 -0.170352D+00
  0.905900D+00  0.140382D+00
  0.364300D+00  0.598684D+00
  0.128500D+00  0.395389D+00
   s     1 1.00
  0.905900D+00  0.100000D+01
   s     1 1.00
  0.364300D+00  0.100000D+01
   p     5 1.00
  0.187100D+02  0.140310D-01
  0.413300D+01  0.868660D-01
  0.120000D+01  0.290216D+00
  0.382700D+00  0.501008D+00
  0.120900D+00  0.343406D+00
   p     1 1.00
  0.382700D+00  0.100000D+01
   p     1 1.00
  0.120900D+00  0.100000D+01
   d     1 1.00
  0.109700D+01  0.100000D+01
   d     1 1.00
  0.318000D+00  0.100000D+01
   f     1 1.00
  0.761000D+00  0.100000D+01
  
  4  0
   s    10 1.00
  0.823600D+04  0.531000D-03
  0.123500D+04  0.410800D-02
  0.280800D+03  0.210870D-01
  0.792700D+02  0.818530D-01
  0.255900D+02  0.234817D+00
  0.899700D+01  0.434401D+00
  0.331900D+01  0.346129D+00
  0.905900D+00  0.393780D-01
  0.364300D+00 -0.898300D-02
  0.128500D+00  0.238500D-02
   s    10 1.00
  0.823600D+04 -0.113000D-03
  0.123500D+04 -0.878000D-03
  0.280800D+03 -0.454000D-02
  0.792700D+02 -0.181330D-01
  0.255900D+02 -0.557600D-01
  0.899700D+01 -0.126895D+00
  0.331900D+01 -0.170352D+00
  0.905900D+00  0.140382D+00
  0.364300D+00  0.598684D+00
  0.128500D+00  0.395389D+00
   s     1 1.00
  0.905900D+00  0.100000D+01
   s     1 1.00
  0.364300D+00  0.100000D+01
   p     5 1.00
  0.187100D+02  0.140310D-01
  0.413300D+01  0.868660D-01
  0.120000D+01  0.290216D+00
  0.382700D+00  0.501008D+00
  0.120900D+00  0.343406D+00
   p     1 1.00
  0.382700D+00  0.100000D+01
   p     1 1.00
  0.120900D+00  0.100000D+01
   d     1 1.00
  0.109700D+01  0.100000D+01
   d     1 1.00
  0.318000D+00  0.100000D+01
   f     1 1.00
  0.761000D+00  0.100000D+01
  
  5  0
   s    10 1.00
  0.823600D+04  0.531000D-03
  0.123500D+04  0.410800D-02
  0.280800D+03  0.210870D-01
  0.792700D+02  0.818530D-01
  0.255900D+02  0.234817D+00
  0.899700D+01  0.434401D+00
  0.331900D+01  0.346129D+00
  0.905900D+00  0.393780D-01
  0.364300D+00 -0.898300D-02
  0.128500D+00  0.238500D-02
   s    10 1.00
  0.823600D+04 -0.113000D-03
  0.123500D+04 -0.878000D-03
  0.280800D+03 -0.454000D-02
  0.792700D+02 -0.181330D-01
  0.255900D+02 -0.557600D-01
  0.899700D+01 -0.126895D+00
  0.331900D+01 -0.170352D+00
  0.905900D+00  0.140382D+00
  0.364300D+00  0.598684D+00
  0.128500D+00  0.395389D+00
   s     1 1.00
  0.905900D+00  0.100000D+01
   s     1 1.00
  0.364300D+00  0.100000D+01
   p     5 1.00
  0.187100D+02  0.140310D-01
  0.413300D+01  0.868660D-01
  0.120000D+01  0.290216D+00
  0.382700D+00  0.501008D+00
  0.120900D+00  0.343406D+00
   p     1 1.00
  0.382700D+00  0.100000D+01
   p     1 1.00
  0.120900D+00  0.100000D+01
   d     1 1.00
  0.109700D+01  0.100000D+01
   d     1 1.00
  0.318000D+00  0.100000D+01
   f     1 1.00
  0.761000D+00  0.100000D+01
  
  6  0
   s    10 1.00
  0.823600D+04  0.531000D-03
  0.123500D+04  0.410800D-02
  0.280800D+03  0.210870D-01
  0.792700D+02  0.818530D-01
  0.255900D+02  0.234817D+00
  0.899700D+01  0.434401D+00
  0.331900D+01  0.346129D+00
  0.905900D+00  0.393780D-01
  0.364300D+00 -0.898300D-02
  0.128500D+00  0.238500D-02
   s    10 1.00
  0.823600D+04 -0.113000D-03
  0.123500D+04 -0.878000D-03
  0.280800D+03 -0.454000D-02
  0.792700D+02 -0.181330D-01
  0.255900D+02 -0.557600D-01
  0.899700D+01 -0.126895D+00
  0.331900D+01 -0.170352D+00
  0.905900D+00  0.140382D+00
  0.364300D+00  0.598684D+00
  0.128500D+00  0.395389D+00
   s     1 1.00
  0.905900D+00  0.100000D+01
   s     1 1.00
  0.364300D+00  0.100000D+01
   p     5 1.00
  0.187100D+02  0.140310D-01
  0.413300D+01  0.868660D-01
  0.120000D+01  0.290216D+00
  0.382700D+00  0.501008D+00
  0.120900D+00  0.343406D+00
   p     1 1.00
  0.382700D+00  0.100000D+01
   p     1 1.00
  0.120900D+00  0.100000D+01
   d     1 1.00
  0.109700D+01  0.100000D+01
   d     1 1.00
  0.318000D+00  0.100000D+01
   f     1 1.00
  0.761000D+00  0.100000D+01
  
  7  0
   s    10 1.00
  0.823600D+04  0.531000D-03
  0.123500D+04  0.410800D-02
  0.280800D+03  0.210870D-01
  0.792700D+02  0.818530D-01
  0.255900D+02  0.234817D+00
  0.899700D+01  0.434401D+00
  0.331900D+01  0.346129D+00
  0.905900D+00  0.393780D-01
  0.364300D+00 -0.898300D-02
  0.128500D+00  0.238500D-02
   s    10 1.00
  0.823600D+04 -0.113000D-03
  0.123500D+04 -0.878000D-03
  0.280800D+03 -0.454000D-02
  0.792700D+02 -0.181330D-01
  0.255900D+02 -0.557600D-01
  0.899700D+01 -0.126895D+00
  0.331900D+01 -0.170352D+00
  0.905900D+00  0.140382D+00
  0.364300D+00  0.598684D+00
  0.128500D+00  0.395389D+00
   s     1 1.00
  0.905900D+00  0.100000D+01
   s     1 1.00
  0.364300D+00  0.100000D+01
   p     5 1.00
  0.187100D+02  0.140310D-01
  0.413300D+01  0.868660D-01
  0.120000D+01  0.290216D+00
  0.382700D+00  0.501008D+00
  0.120900D+00  0.343406D+00
   p     1 1.00
  0.382700D+00  0.100000D+01
   p     1 1.00
  0.120900D+00  0.100000D+01
   d     1 1.00
  0.109700D+01  0.100000D+01
   d     1 1.00
  0.318000D+00  0.100000D+01
   f     1 1.00
  0.761000D+00  0.100000D+01
  
  8  0
   s     4 1.00
  0.130100D+02  0.196850D-01
  0.196200D+01  0.137977D+00
  0.444600D+00  0.478148D+00
  0.122000D+00  0.501240D+00
   s     1 1.00
  0.122000D+00  0.100000D+01
   p     1 1.00
  0.727000D+00  0.100000D+01
  
  9  0
   s     4 1.00
  0.130100D+02  0.196850D-01
  0.196200D+01  0.137977D+00
  0.444600D+00  0.478148D+00
  0.122000D+00  0.501240D+00
   s     1 1.00
  0.122000D+00  0.100000D+01
   p     1 1.00
  0.727000D+00  0.100000D+01
  
 10  0
   s     4 1.00
  0.130100D+02  0.196850D-01
  0.196200D+01  0.137977D+00
  0.444600D+00  0.478148D+00
  0.122000D+00  0.501240D+00
   s     1 1.00
  0.122000D+00  0.100000D+01
   p     1 1.00
  0.727000D+00  0.100000D+01
  
 11  0
   s     4 1.00
  0.130100D+02  0.196850D-01
  0.196200D+01  0.137977D+00
  0.444600D+00  0.478148D+00
  0.122000D+00  0.501240D+00
   s     1 1.00
  0.122000D+00  0.100000D+01
   p     1 1.00
  0.727000D+00  0.100000D+01
  
 12  0
   s     4 1.00
  0.130100D+02  0.196850D-01
  0.196200D+01  0.137977D+00
  0.444600D+00  0.478148D+00
  0.122000D+00  0.501240D+00
   s     1 1.00
  0.122000D+00  0.100000D+01
   p     1 1.00
  0.727000D+00  0.100000D+01
  
 13  0
   s     4 1.00
  0.130100D+02  0.196850D-01
  0.196200D+01  0.137977D+00
  0.444600D+00  0.478148D+00
  0.122000D+00  0.501240D+00
   s     1 1.00
  0.122000D+00  0.100000D+01
   p     1 1.00
  0.727000D+00  0.100000D+01
  
 14  0
   s     4 1.00
  0.130100D+02  0.196850D-01
  0.196200D+01  0.137977D+00
  0.444600D+00  0.478148D+00
  0.122000D+00  0.501240D+00
   s     1 1.00
  0.122000D+00  0.100000D+01
   p     1 1.00
  0.727000D+00  0.100000D+01
  
[MO]
 Sym= __1_A__
 Ene=   1.00000000000000     
 Spin= Alpha
 Occup=    1.00000000000000     
                     1  5.482180727575950E-005
                     2  0.998597334896782     
                     3  1.732518801756400E-003
                     4  1.483978211342040E-003
                     5  4.709578998630894E-003
                     6  3.340215637955787E-003
                     7  5.930579295504028E-003
                     8 -3.562707004315851E-011
                     9 -7.531736874676623E-004
                    10 -4.442427513397500E-004
                    11  2.523625409813261E-011
                    12 -2.403801142460922E-003
                    13 -1.603052360370998E-003
                    14  2.107120019388621E-011
                    15 -7.472334747786550E-005
                    16 -9.304705829700430E-013
                    17 -1.813409464902120E-012
                    18 -2.346639967531844E-004
                    19 -5.215444072599543E-005
                    20  1.894270261971872E-004
                    21 -1.213003754113571E-013
                    22 -6.617278090556014E-013
                    23 -2.092002308533172E-004
                    24  5.736289492699787E-004
                    25 -1.017481791114637E-012
                    26  8.617205091513500E-006
                    27 -5.469808875129701E-005
                    28 -1.042489425573347E-012
                    29 -3.446446416535418E-013
                    30  2.955893933772080E-005
                    31 -1.014296174279199E-004
                    32 -3.016497861823866E-004
                    33  1.291997253529434E-003
                    34  2.420974348797618E-004
                    35 -2.359908133170764E-004
                    36 -1.716345711211751E-004
                    37 -4.490731908227800E-003
                    38  1.222158201687509E-011
                    39  5.583535479554992E-004
                    40  1.254912013506991E-004
                    41  8.117497706249471E-013
                    42 -2.342876981096068E-003
                    43  5.218695623680180E-003
                    44  1.732075694471749E-012
                    45 -2.493942299203409E-005
                    46 -7.995850326390880E-013
                    47 -2.584821623036331E-012
                    48 -2.342645823767750E-004
                    49 -7.334747171140707E-006
                    50 -2.670733598273860E-004
                    51  4.554331807339049E-012
                    52  8.107688947443694E-012
                    53 -1.471731065358856E-005
                    54  8.561446701426396E-004
                    55  2.282177502714022E-012
                    56 -1.499546765341926E-005
                    57 -4.376815816789418E-005
                    58  3.905498951528182E-012
                    59  2.118177133971227E-012
                    60 -1.510635007631097E-005
                    61 -1.124487283916993E-004
                    62 -5.041011930951713E-004
                    63 -2.268478938380216E-003
                    64 -1.022404211285467E-004
                    65  2.177931736336097E-003
                    66 -6.692282328151992E-004
                    67  4.619684225814245E-004
                    68  1.842073791454259E-011
                    69  4.944167034203812E-004
                    70  7.756944366942283E-004
                    71 -9.816187742925681E-012
                    72 -1.705522021749439E-003
                    73  7.698144770533658E-004
                    74 -1.459240603741905E-012
                    75 -4.227708146335242E-005
                    76  1.980767074197629E-012
                    77 -1.435921152582078E-012
                    78 -8.285216018901574E-005
                    79 -3.216628791075967E-005
                    80 -1.548338421352557E-004
                    81 -2.482431588763995E-012
                    82  1.067445633903614E-011
                    83  1.015916432177057E-004
                    84  7.244072051492635E-005
                    85 -1.030958811609514E-012
                    86  7.941870143263186E-006
                    87 -4.546721371319019E-005
                    88 -2.680486161059944E-012
                    89  1.705170238562010E-013
                    90 -1.342821861227084E-005
                    91 -1.555863466662726E-004
                    92 -1.047278354971432E-004
                    93 -8.653880222434443E-004
                    94  2.151482618862449E-004
                    95 -4.169331588962527E-004
                    96  5.104176229172239E-004
                    97  5.985776262072721E-004
                    98 -1.978821489371583E-011
                    99  4.553100986352466E-004
                   100  2.665215636229704E-004
                   101  8.486081392927587E-012
                   102  4.707621991853461E-004
                   103 -1.454926878128066E-003
                   104 -2.181502696685690E-012
                   105 -2.701748907669568E-006
                   106 -3.086995008044673E-012
                   107  2.683917329753594E-012
                   108 -5.887197947051140E-005
                   109 -2.059475281822459E-005
                   110  1.472154785050315E-004
                   111  4.501492249356614E-012
                   112 -5.266451578753063E-012
                   113 -1.492499174273355E-004
                   114 -3.471360831273906E-005
                   115 -2.731587935645639E-013
                   116 -2.544342065008713E-005
                   117 -3.101303554867659E-005
                   118  5.836467866294670E-013
                   119 -1.454402111369786E-012
                   120  1.662817465530046E-005
                   121 -1.992498853474080E-005
                   122 -2.666568343711182E-004
                   123 -5.527679658308959E-004
                   124  1.725565968583584E-004
                   125  3.896487668106390E-004
                   126 -1.287996254282305E-005
                   127 -5.254449732211037E-004
                   128  7.393825385833262E-012
                   129  2.009169893772575E-004
                   130  6.024139780390944E-004
                   131 -3.674280074693576E-012
                   132  3.608953644875900E-004
                   133  2.024040677833266E-003
                   134 -1.474816748860263E-011
                   135  1.141412005056937E-005
                   136 -3.393373466787698E-012
                   137  7.160008647518532E-013
                   138  4.436224641164290E-005
                   139  3.935861953486373E-007
                   140  2.074872895324149E-004
                   141  3.769329756743635E-012
                   142  7.671841762228658E-012
                   143  3.552927637471566E-004
                   144  2.535981032315560E-004
                   145  3.937473078458069E-012
                   146 -8.538645628889522E-006
                   147 -6.123182140373198E-005
                   148  8.222983804698194E-013
                   149 -2.481305031864505E-013
                   150 -2.161741863430102E-005
                   151 -4.940969975756750E-005
                   152 -1.731419783161671E-004
                   153 -2.781550902192039E-004
                   154  2.952017838815426E-005
                   155  3.904660459455419E-004
                   156 -2.765286519860739E-005
                   157 -4.359871953566698E-004
                   158  3.361722041811606E-012
                   159  1.495204616580137E-005
                   160  2.693306650718515E-005
                   161  1.371017616800939E-012
                   162  7.127879552252516E-004
                   163 -3.326551088338946E-004
                   164 -8.792710256783945E-013
                   165 -3.509091678260396E-006
                   166 -3.827505751027016E-012
                   167 -9.377736190431066E-014
                   168 -8.909292093880491E-006
                   169  5.916282602935172E-006
                   170  4.900705594544890E-005
                   171  8.007397699187129E-012
                   172  3.714928170029754E-012
                   173 -2.566270758233968E-006
                   174 -1.702217577615786E-005
                   175 -5.429471361996586E-012
                   176  4.785668269929623E-006
                   177 -5.726004772871661E-006
                   178 -2.104336566162408E-012
                   179  1.616170367225089E-012
                   180 -2.605323753115715E-005
                   181 -5.265423392177409E-006
                   182 -1.633535304124641E-004
                   183 -4.655125680767062E-004
                   184  4.935784502718117E-005
                   185  2.346693648285112E-004
                   186 -3.901157095493606E-005
                   187 -5.348667654675941E-005
                   188  3.497801823886040E-012
                   189  2.037596139102781E-004
                   190  6.219175770906018E-005
                   191  5.918758680626486E-013
                   192  1.323307975737527E-003
                   193 -1.541501402464955E-004
                   194  2.758451567630040E-012
                   195 -1.312760065019292E-006
                   196  4.950608141659054E-013
                   197 -1.218850936407110E-013
                   198 -1.366134841571575E-005
                   199  7.586368015883070E-006
                   200  2.281982510161234E-005
                   201  3.854606123981920E-012
                   202  2.570439193925035E-012
                   203 -8.282442707344093E-005
                   204 -1.843356314187517E-004
                   205  8.931118715036092E-013
                   206 -5.431642046798113E-006
                   207 -6.057505258203170E-006
                   208 -2.793956463955508E-012
                   209 -2.422877822351811E-012
                   210  1.138299030840176E-005
                   211 -2.937836995559567E-006
                   212  2.064367078463569E-005
                   213  8.440477890467765E-005
                   214  9.981008890986597E-005
                   215  1.108719750782345E-004
                   216  8.152042713170769E-013
                   217  2.137281282453886E-004
                   218 -8.607424629966645E-004
                   219 -3.802192101658821E-004
                   220  1.889615923207801E-004
                   221 -2.956126786063359E-012
                   222 -4.271698858412999E-004
                   223 -6.157630776479527E-004
                   224  6.089029209999107E-006
                   225 -7.127120573548891E-005
                   226  9.232002395570129E-013
                   227 -2.103841720674407E-004
                   228 -4.850646841670159E-004
                   229 -4.240596624774868E-006
                   230 -1.154483715517998E-005
                   231 -2.869353142816577E-012
                   232 -5.720308658624311E-005
                   233 -5.649572202012155E-004
                   234  6.926341005468683E-006
                   235 -4.038343903456199E-006
                   236 -1.382527472107295E-012
                   237 -1.576459910442343E-004
                   238 -3.708514255090968E-004
                   239  8.056642577049327E-006
                   240  3.539193661441605E-006
                   241  7.412349802779039E-013
                   242  1.475133700268732E-005
                   243 -3.333505016615480E-005
                   244 -3.965549504780810E-007
                   245  2.105096021608972E-005
                   246 -2.714991991334114E-012
 Sym= __2_A__
 Ene=   2.00000000000000     
 Spin= Alpha
 Occup=    1.00000000000000     
                     1 -5.192865693773083E-005
                     2 -3.417579935813303E-004
                     3  2.915576091892278E-003
                     4  1.586887656608811E-004
                     5  1.337701393471391E-003
                     6 -2.272707554657275E-004
                     7  2.917746069009685E-003
                     8 -8.851322374171096E-012
                     9 -5.258099813968695E-005
                    10 -1.165441002505428E-004
                    11 -2.118910616813913E-012
                    12  5.860640448546105E-005
                    13 -4.007552979133395E-004
                    14  1.628048715346822E-012
                    15  3.305920938497520E-005
                    16  2.394287279432477E-013
                    17 -6.255448854897816E-013
                    18 -4.810651222283996E-005
                    19  1.117592825183317E-005
                    20 -1.163393775766416E-004
                    21  1.354421419841528E-012
                    22  1.435717418890173E-012
                    23  1.355205882699488E-004
                    24 -1.580770892682968E-005
                    25  7.750027320354628E-013
                    26 -1.394798377487499E-005
                    27  8.832437806003075E-005
                    28 -8.589595743397104E-013
                    29 -3.630775028948687E-013
                    30 -1.159660745340557E-005
                    31  1.490225168166628E-004
                    32   1.00102592975390     
                    33  9.298244584164773E-003
                    34  2.724612146764222E-003
                    35 -8.131247031203118E-003
                    36 -1.166822212118165E-004
                    37 -3.607970971902193E-003
                    38  7.642585423805032E-012
                    39  1.469848314464793E-004
                    40  4.820078261802614E-004
                    41 -2.887046825068208E-012
                    42  2.630719789627588E-005
                    43  4.220635537126577E-003
                    44 -3.554839406338549E-012
                    45 -5.685173911581611E-004
                    46  9.997067651343038E-013
                    47  6.314183977135278E-013
                    48 -1.996185896932576E-004
                    49 -2.689201742823662E-006
                    50  5.494592280812408E-004
                    51  2.290974756786771E-012
                    52 -2.971393391266185E-012
                    53 -8.823075834034214E-004
                    54  5.010555567628904E-005
                    55  6.822760286386890E-013
                    56 -5.412810656047754E-006
                    57  9.324020488208384E-005
                    58  3.978222583835272E-013
                    59  7.544065587325182E-013
                    60  4.527147034120855E-006
                    61  3.987422959494916E-004
                    62  9.125726419578635E-003
                    63 -2.089803610368706E-003
                    64 -2.972776813807335E-004
                    65  3.069281805732953E-003
                    66 -2.360836084774482E-005
                    67  1.171552678718943E-004
                    68 -9.277550052881875E-012
                    69  7.342505039803619E-004
                    70 -3.739856944412104E-006
                    71  1.479125579428115E-012
                    72 -2.056343608440301E-003
                    73  7.991196424128679E-005
                    74  5.361628555297375E-012
                    75  2.644976129876536E-005
                    76  1.306366738201434E-012
                    77 -8.792399253031972E-013
                    78 -2.307132344029488E-006
                    79  1.664763613426549E-006
                    80 -4.131315023744963E-004
                    81 -8.496577422957058E-013
                    82  7.356286851307851E-012
                    83 -5.855376758630029E-004
                    84 -3.751364265527753E-004
                    85 -3.083676314434524E-012
                    86  3.253142694547059E-005
                    87 -5.888208667282856E-005
                    88  3.475639370297916E-013
                    89 -3.430536296729805E-012
                    90  5.106998605703770E-005
                    91  1.403845418835014E-004
                    92  9.719007661769707E-003
                    93 -2.060914625243398E-003
                    94 -2.789242292766709E-004
                    95  3.006367374924697E-003
                    96  7.347113971408716E-006
                    97  8.032005965265423E-005
                    98 -4.301473149005186E-012
                    99 -6.572563872137055E-004
                   100  5.722803365451969E-005
                   101 -4.190429336840354E-012
                   102  2.030337882827467E-003
                   103  5.883843189097537E-005
                   104  1.258128069639791E-012
                   105  3.103105291617868E-005
                   106 -3.244757950923266E-012
                   107  6.265390855682658E-013
                   108 -5.313687750670842E-006
                   109 -7.508361378607530E-006
                   110 -4.097260355453721E-004
                   111 -2.140527915930959E-012
                   112 -1.934016461677352E-012
                   113 -6.111023624249008E-004
                   114  3.593143557520780E-004
                   115 -6.081754990068716E-013
                   116 -3.256639153010116E-005
                   117 -5.987228601168277E-005
                   118  1.008418924750145E-012
                   119  7.448361724064458E-013
                   120 -4.937851744075919E-005
                   121  1.371542570599742E-004
                   122 -1.544966659356369E-004
                   123 -6.707807270827054E-004
                   124  2.255683119493453E-004
                   125 -1.082953008469234E-004
                   126 -1.897695192438833E-006
                   127 -3.424596112891270E-004
                   128 -5.258357811450640E-012
                   129 -6.212387470368150E-005
                   130  5.391142403443246E-004
                   131  1.332076149397908E-012
                   132  3.257113147831461E-004
                   133  7.626360078976163E-004
                   134  2.115682949092975E-012
                   135  1.889147884116948E-005
                   136 -2.810038456050482E-015
                   137  2.010866114308615E-012
                   138  3.681215071197912E-006
                   139  5.288970466867938E-005
                   140  1.365715304444632E-004
                   141  5.703772206256410E-012
                   142 -1.200200329035118E-012
                   143  2.426404632442062E-004
                   144 -1.819177660697766E-004
                   145 -1.057378291265979E-012
                   146  7.179580252275262E-006
                   147 -3.358308108934464E-005
                   148  1.135305039657240E-012
                   149  4.029864920906059E-012
                   150 -4.760761036702462E-005
                   151  2.859812776750722E-005
                   152 -1.391499680896022E-004
                   153 -6.777571755230553E-004
                   154  2.298869028416850E-004
                   155 -1.365495797891227E-004
                   156  1.164769479762317E-006
                   157 -3.331125433109974E-004
                   158 -3.891311845539230E-012
                   159  4.995221859881549E-005
                   160  5.630808608550812E-004