[Molden Format]
[Atoms] AU
  N     1    7     0.0000000000    0.0000000000   -4.2907334100        
  C     2    6     0.0000000000    0.0000000000   -1.7772236300        
  C     3    6     0.0000000000   -2.3389203600   -0.4111016300        
  C     4    6     0.0000000000    2.3389203600   -0.4111016300        
  C     5    6     0.0000000000   -2.2998668500    2.1639215300        
  C     6    6     0.0000000000    2.2998668500    2.1639215300        
  C     7    6     0.0000000000    0.0000000000    3.4755251800        
  H     8    1     0.0000000000   -2.2516208400   -5.6797945000        
  H     9    1     0.0000000000    2.0907907800   -5.5805758500        
  H    10    1     0.0000000000   -4.0745407300   -1.4447408500        
  H    11    1     0.0000000000    4.0745407300   -1.4447408500        
  H    12    1     0.0000000000   -4.0420632100    3.1963889500        
  H    13    1     0.0000000000    4.0420632100    3.1963889500        
  H    14    1     0.0000000000    0.0000000000    5.5020335600        
[5D]
[7F]
[GTO]
  1  0
   s    12 1.00
  0.114200D+05  0.172695D-04
  0.171200D+04  0.134411D-03
  0.389300D+03  0.694561D-03
  0.110000D+03  0.278531D-02
  0.355700D+02  0.863457D-02
  0.125400D+02  0.199805D-01
  0.464400D+01  0.262908D-01
  0.129300D+01 -0.243845D-01
  0.511800D+00 -0.924934D-01
  0.178700D+00 -0.339683D+00
  0.246240D-01  0.345111D+00
  0.112530D-01  0.752750D+00
   s    10 1.00
  0.114200D+05  0.523000D-03
  0.171200D+04  0.404500D-02
  0.389300D+03  0.207750D-01
  0.110000D+03  0.807269D-01
  0.355700D+02  0.233074D+00
  0.125400D+02  0.433501D+00
  0.464400D+01  0.347472D+00
  0.129300D+01  0.412620D-01
  0.511800D+00 -0.850799D-02
  0.178700D+00  0.238400D-02
   s    10 1.00
  0.114200D+05 -0.115000D-03
  0.171200D+04 -0.895000D-03
  0.389300D+03 -0.462400D-02
  0.110000D+03 -0.185280D-01
  0.355700D+02 -0.573390D-01
  0.125400D+02 -0.132076D+00
  0.464400D+01 -0.172510D+00
  0.129300D+01  0.151814D+00
  0.511800D+00  0.599944D+00
  0.178700D+00  0.387462D+00
   s     1 1.00
  0.129300D+01  0.100000D+01
   s     1 1.00
  0.178700D+00  0.100000D+01
   p     5 1.00
  0.266300D+02  0.146700D-01
  0.594800D+01  0.917640D-01
  0.174200D+01  0.298683D+00
  0.555000D+00  0.498487D+00
  0.172500D+00  0.337023D+00
   p     1 1.00
  0.174200D+01  0.100000D+01
   p     1 1.00
  0.555000D+00  0.100000D+01
   d     1 1.00
  0.165400D+01  0.100000D+01
   d     1 1.00
  0.469000D+00  0.100000D+01
   f     1 1.00
  0.109300D+01  0.100000D+01
  
  2  0
   s    10 1.00
  0.823600D+04  0.531000D-03
  0.123500D+04  0.410800D-02
  0.280800D+03  0.210870D-01
  0.792700D+02  0.818530D-01
  0.255900D+02  0.234817D+00
  0.899700D+01  0.434401D+00
  0.331900D+01  0.346129D+00
  0.905900D+00  0.393780D-01
  0.364300D+00 -0.898300D-02
  0.128500D+00  0.238500D-02
   s    10 1.00
  0.823600D+04 -0.113000D-03
  0.123500D+04 -0.878000D-03
  0.280800D+03 -0.454000D-02
  0.792700D+02 -0.181330D-01
  0.255900D+02 -0.557600D-01
  0.899700D+01 -0.126895D+00
  0.331900D+01 -0.170352D+00
  0.905900D+00  0.140382D+00
  0.364300D+00  0.598684D+00
  0.128500D+00  0.395389D+00
   s     1 1.00
  0.905900D+00  0.100000D+01
   s     1 1.00
  0.364300D+00  0.100000D+01
   p     5 1.00
  0.187100D+02  0.140310D-01
  0.413300D+01  0.868660D-01
  0.120000D+01  0.290216D+00
  0.382700D+00  0.501008D+00
  0.120900D+00  0.343406D+00
   p     1 1.00
  0.382700D+00  0.100000D+01
   p     1 1.00
  0.120900D+00  0.100000D+01
   d     1 1.00
  0.109700D+01  0.100000D+01
   d     1 1.00
  0.318000D+00  0.100000D+01
   f     1 1.00
  0.761000D+00  0.100000D+01
  
  3  0
   s    10 1.00
  0.823600D+04  0.531000D-03
  0.123500D+04  0.410800D-02
  0.280800D+03  0.210870D-01
  0.792700D+02  0.818530D-01
  0.255900D+02  0.234817D+00
  0.899700D+01  0.434401D+00
  0.331900D+01  0.346129D+00
  0.905900D+00  0.393780D-01
  0.364300D+00 -0.898300D-02
  0.128500D+00  0.238500D-02
   s    10 1.00
  0.823600D+04 -0.113000D-03
  0.123500D+04 -0.878000D-03
  0.280800D+03 -0.454000D-02
  0.792700D+02 -0.181330D-01
  0.255900D+02 -0.557600D-01
  0.899700D+01 -0.126895D+00
  0.331900D+01 -0.170352D+00
  0.905900D+00  0.140382D+00
  0.364300D+00  0.598684D+00
  0.128500D+00  0.395389D+00
   s     1 1.00
  0.905900D+00  0.100000D+01
   s     1 1.00
  0.364300D+00  0.100000D+01
   p     5 1.00
  0.187100D+02  0.140310D-01
  0.413300D+01  0.868660D-01
  0.120000D+01  0.290216D+00
  0.382700D+00  0.501008D+00
  0.120900D+00  0.343406D+00
   p     1 1.00
  0.382700D+00  0.100000D+01
   p     1 1.00
  0.120900D+00  0.100000D+01
   d     1 1.00
  0.109700D+01  0.100000D+01
   d     1 1.00
  0.318000D+00  0.100000D+01
   f     1 1.00
  0.761000D+00  0.100000D+01
  
  4  0
   s    10 1.00
  0.823600D+04  0.531000D-03
  0.123500D+04  0.410800D-02
  0.280800D+03  0.210870D-01
  0.792700D+02  0.818530D-01
  0.255900D+02  0.234817D+00
  0.899700D+01  0.434401D+00
  0.331900D+01  0.346129D+00
  0.905900D+00  0.393780D-01
  0.364300D+00 -0.898300D-02
  0.128500D+00  0.238500D-02
   s    10 1.00
  0.823600D+04 -0.113000D-03
  0.123500D+04 -0.878000D-03
  0.280800D+03 -0.454000D-02
  0.792700D+02 -0.181330D-01
  0.255900D+02 -0.557600D-01
  0.899700D+01 -0.126895D+00
  0.331900D+01 -0.170352D+00
  0.905900D+00  0.140382D+00
  0.364300D+00  0.598684D+00
  0.128500D+00  0.395389D+00
   s     1 1.00
  0.905900D+00  0.100000D+01
   s     1 1.00
  0.364300D+00  0.100000D+01
   p     5 1.00
  0.187100D+02  0.140310D-01
  0.413300D+01  0.868660D-01
  0.120000D+01  0.290216D+00
  0.382700D+00  0.501008D+00
  0.120900D+00  0.343406D+00
   p     1 1.00
  0.382700D+00  0.100000D+01
   p     1 1.00
  0.120900D+00  0.100000D+01
   d     1 1.00
  0.109700D+01  0.100000D+01
   d     1 1.00
  0.318000D+00  0.100000D+01
   f     1 1.00
  0.761000D+00  0.100000D+01
  
  5  0
   s    10 1.00
  0.823600D+04  0.531000D-03
  0.123500D+04  0.410800D-02
  0.280800D+03  0.210870D-01
  0.792700D+02  0.818530D-01
  0.255900D+02  0.234817D+00
  0.899700D+01  0.434401D+00
  0.331900D+01  0.346129D+00
  0.905900D+00  0.393780D-01
  0.364300D+00 -0.898300D-02
  0.128500D+00  0.238500D-02
   s    10 1.00
  0.823600D+04 -0.113000D-03
  0.123500D+04 -0.878000D-03
  0.280800D+03 -0.454000D-02
  0.792700D+02 -0.181330D-01
  0.255900D+02 -0.557600D-01
  0.899700D+01 -0.126895D+00
  0.331900D+01 -0.170352D+00
  0.905900D+00  0.140382D+00
  0.364300D+00  0.598684D+00
  0.128500D+00  0.395389D+00
   s     1 1.00
  0.905900D+00  0.100000D+01
   s     1 1.00
  0.364300D+00  0.100000D+01
   p     5 1.00
  0.187100D+02  0.140310D-01
  0.413300D+01  0.868660D-01
  0.120000D+01  0.290216D+00
  0.382700D+00  0.501008D+00
  0.120900D+00  0.343406D+00
   p     1 1.00
  0.382700D+00  0.100000D+01
   p     1 1.00
  0.120900D+00  0.100000D+01
   d     1 1.00
  0.109700D+01  0.100000D+01
   d     1 1.00
  0.318000D+00  0.100000D+01
   f     1 1.00
  0.761000D+00  0.100000D+01
  
  6  0
   s    10 1.00
  0.823600D+04  0.531000D-03
  0.123500D+04  0.410800D-02
  0.280800D+03  0.210870D-01
  0.792700D+02  0.818530D-01
  0.255900D+02  0.234817D+00
  0.899700D+01  0.434401D+00
  0.331900D+01  0.346129D+00
  0.905900D+00  0.393780D-01
  0.364300D+00 -0.898300D-02
  0.128500D+00  0.238500D-02
   s    10 1.00
  0.823600D+04 -0.113000D-03
  0.123500D+04 -0.878000D-03
  0.280800D+03 -0.454000D-02
  0.792700D+02 -0.181330D-01
  0.255900D+02 -0.557600D-01
  0.899700D+01 -0.126895D+00
  0.331900D+01 -0.170352D+00
  0.905900D+00  0.140382D+00
  0.364300D+00  0.598684D+00
  0.128500D+00  0.395389D+00
   s     1 1.00
  0.905900D+00  0.100000D+01
   s     1 1.00
  0.364300D+00  0.100000D+01
   p     5 1.00
  0.187100D+02  0.140310D-01
  0.413300D+01  0.868660D-01
  0.120000D+01  0.290216D+00
  0.382700D+00  0.501008D+00
  0.120900D+00  0.343406D+00
   p     1 1.00
  0.382700D+00  0.100000D+01
   p     1 1.00
  0.120900D+00  0.100000D+01
   d     1 1.00
  0.109700D+01  0.100000D+01
   d     1 1.00
  0.318000D+00  0.100000D+01
   f     1 1.00
  0.761000D+00  0.100000D+01
  
  7  0
   s    10 1.00
  0.823600D+04  0.531000D-03
  0.123500D+04  0.410800D-02
  0.280800D+03  0.210870D-01
  0.792700D+02  0.818530D-01
  0.255900D+02  0.234817D+00
  0.899700D+01  0.434401D+00
  0.331900D+01  0.346129D+00
  0.905900D+00  0.393780D-01
  0.364300D+00 -0.898300D-02
  0.128500D+00  0.238500D-02
   s    10 1.00
  0.823600D+04 -0.113000D-03
  0.123500D+04 -0.878000D-03
  0.280800D+03 -0.454000D-02
  0.792700D+02 -0.181330D-01
  0.255900D+02 -0.557600D-01
  0.899700D+01 -0.126895D+00
  0.331900D+01 -0.170352D+00
  0.905900D+00  0.140382D+00
  0.364300D+00  0.598684D+00
  0.128500D+00  0.395389D+00
   s     1 1.00
  0.905900D+00  0.100000D+01
   s     1 1.00
  0.364300D+00  0.100000D+01
   p     5 1.00
  0.187100D+02  0.140310D-01
  0.413300D+01  0.868660D-01
  0.120000D+01  0.290216D+00
  0.382700D+00  0.501008D+00
  0.120900D+00  0.343406D+00
   p     1 1.00
  0.382700D+00  0.100000D+01
   p     1 1.00
  0.120900D+00  0.100000D+01
   d     1 1.00
  0.109700D+01  0.100000D+01
   d     1 1.00
  0.318000D+00  0.100000D+01
   f     1 1.00
  0.761000D+00  0.100000D+01
  
  8  0
   s     4 1.00
  0.130100D+02  0.196850D-01
  0.196200D+01  0.137977D+00
  0.444600D+00  0.478148D+00
  0.122000D+00  0.501240D+00
   s     1 1.00
  0.122000D+00  0.100000D+01
   p     1 1.00
  0.727000D+00  0.100000D+01
  
  9  0
   s     4 1.00
  0.130100D+02  0.196850D-01
  0.196200D+01  0.137977D+00
  0.444600D+00  0.478148D+00
  0.122000D+00  0.501240D+00
   s     1 1.00
  0.122000D+00  0.100000D+01
   p     1 1.00
  0.727000D+00  0.100000D+01
  
 10  0
   s     4 1.00
  0.130100D+02  0.196850D-01
  0.196200D+01  0.137977D+00
  0.444600D+00  0.478148D+00
  0.122000D+00  0.501240D+00
   s     1 1.00
  0.122000D+00  0.100000D+01
   p     1 1.00
  0.727000D+00  0.100000D+01
  
 11  0
   s     4 1.00
  0.130100D+02  0.196850D-01
  0.196200D+01  0.137977D+00
  0.444600D+00  0.478148D+00
  0.122000D+00  0.501240D+00
   s     1 1.00
  0.122000D+00  0.100000D+01
   p     1 1.00
  0.727000D+00  0.100000D+01
  
 12  0
   s     4 1.00
  0.130100D+02  0.196850D-01
  0.196200D+01  0.137977D+00
  0.444600D+00  0.478148D+00
  0.122000D+00  0.501240D+00
   s     1 1.00
  0.122000D+00  0.100000D+01
   p     1 1.00
  0.727000D+00  0.100000D+01
  
 13  0
   s     4 1.00
  0.130100D+02  0.196850D-01
  0.196200D+01  0.137977D+00
  0.444600D+00  0.478148D+00
  0.122000D+00  0.501240D+00
   s     1 1.00
  0.122000D+00  0.100000D+01
   p     1 1.00
  0.727000D+00  0.100000D+01
  
 14  0
   s     4 1.00
  0.130100D+02  0.196850D-01
  0.196200D+01  0.137977D+00
  0.444600D+00  0.478148D+00
  0.122000D+00  0.501240D+00
   s     1 1.00
  0.122000D+00  0.100000D+01
   p     1 1.00
  0.727000D+00  0.100000D+01
  
[MO]
 Sym= __1_A__
 Ene=   1.00000000000000     
 Spin= Alpha
 Occup=    1.00000000000000     
                     1  1.183573399707836E-006
                     2  0.998741079009946     
                     3  1.481151701219813E-003
                     4  1.340954850198235E-003
                     5  4.344097352885945E-003
                     6  1.458610888011781E-012
                     7  1.594581444064367E-003
                     8  6.323445067876099E-003
                     9  2.084149252040027E-012
                    10 -3.585924434831466E-004
                    11 -5.436312180312823E-004
                    12  2.202842177238229E-012
                    13 -1.022080442107763E-003
                    14 -1.837210518213310E-003
                    15  2.405017005962320E-004
                    16  2.097398948929102E-013
                    17 -7.017408104152954E-006
                    18  6.189179198411870E-005
                    19  3.120329783440014E-013
                    20  1.068566449250895E-004
                    21 -1.009065149940424E-012
                    22  1.732263980888369E-004
                    23  3.442561437833388E-004
                    24 -6.066446958207133E-013
                    25 -1.080258745528717E-004
                    26  9.579191496188270E-013
                    27  9.070266400995765E-006
                    28  1.586854950860400E-005
                    29 -2.146775313905277E-013
                    30  1.051793357116903E-013
                    31  7.295954938003077E-007
                    32 -2.803482202253865E-004
                    33  1.360117710382168E-003
                    34  2.269186326465192E-004
                    35 -2.697787994708060E-004
                    36  3.458547210450766E-012
                    37 -9.322914612518933E-005
                    38 -4.259500940065860E-003
                    39  2.900764394731326E-012
                    40  2.381972687003895E-004
                    41  6.840365842661126E-005
                    42  1.339764902381020E-012
                    43 -1.000667072940463E-003
                    44  5.223472063643141E-003
                    45  2.087639225293536E-004
                    46 -4.098064416862943E-013
                    47 -6.177048672629333E-006
                    48  9.477034432750783E-005
                    49 -2.722104326652034E-012
                    50  1.524904464696232E-004
                    51  3.925924566802378E-012
                    52  3.034322340024199E-004
                    53 -2.440469889139218E-004
                    54 -1.075281656534503E-012
                    55 -1.122192945054193E-004
                    56  1.661840749045376E-012
                    57  2.928391817143016E-006
                    58  3.917052213497690E-005
                    59  1.338287693167778E-012
                    60  1.105530883243241E-012
                    61 -7.165389179070792E-006
                    62 -3.890034357350739E-004
                    63 -1.762563075082529E-003
                    64 -1.153030458253919E-005
                    65  1.390865236041179E-003
                    66  1.525146395953446E-012
                    67 -5.504617499172172E-004
                    68  3.988991875815393E-004
                    69  3.997977123925922E-012
                    70  1.935438538424361E-004
                    71  6.393051434312226E-004
                    72 -1.128962283933420E-012
                    73 -1.373382634841406E-003
                    74  1.712533516609916E-004
                    75  7.457738793721112E-005
                    76  1.526462316772475E-012
                    77 -1.640972803860696E-005
                    78  6.727535774629690E-006
                    79  1.641719585759875E-012
                    80  2.702928009543412E-005
                    81  1.377556066657681E-012
                    82  4.483389776766369E-005
                    83 -7.076004095500282E-005
                    84 -1.229729770064802E-012
                    85 -1.199887835389578E-004
                    86 -1.159931520231771E-012
                    87 -2.145247299449009E-005
                    88  4.038725690097860E-005
                    89 -9.889774291979410E-013
                    90 -1.344753191090421E-012
                    91  5.082420600213455E-006
                    92 -2.227692587459118E-004
                    93 -1.225927212890791E-003
                    94  1.193421037298730E-004
                    95  3.489959214558785E-004
                    96  1.133293342627205E-011
                    97  5.135117240624064E-004
                    98  4.905019682016854E-004
                    99 -8.239204417250078E-012
                   100  1.697329924010613E-004
                   101  4.233463732644699E-004
                   102 -4.666928284830177E-012
                   103  8.220608322969965E-004
                   104 -7.725375831610970E-004
                   105  6.111568520108597E-005
                   106  2.520012334606943E-012
                   107 -4.269116222514917E-006
                   108  1.700930040462441E-005
                   109  5.345074518197038E-013
                   110  2.725994444966953E-005
                   111 -4.156467639565766E-012
                   112 -3.789846318423426E-005
                   113  8.080477705526193E-005
                   114  2.692318874209851E-012
                   115 -7.345707478668601E-005
                   116  1.325333697027693E-012
                   117  2.343130175480837E-005
                   118  1.065528727872821E-005
                   119  9.830998025577317E-013
                   120 -9.231752691383611E-013
                   121 -1.395168637211805E-005
                   122 -2.504614417883483E-004
                   123 -5.485536188366996E-004
                   124  1.353318263095378E-004
                   125  4.008910875740443E-004
                   126 -4.357062555019274E-012
                   127 -6.708963472885266E-006
                   128 -4.436624501001844E-004
                   129  4.222190158451222E-012
                   130  1.583639171712941E-004
                   131  4.458178212324666E-004
                   132  4.699957284892663E-012
                   133  4.680017493624067E-005
                   134  1.340555749344154E-003
                   135 -3.109692953514416E-005
                   136 -9.414347588405070E-013
                   137 -3.029205199230624E-006
                   138 -9.095762926565104E-006
                   139  1.144191171020399E-012
                   140 -2.995184903238848E-004
                   141  2.789445599302911E-012
                   142  1.749279312471385E-004
                   143  1.430443559518842E-005
                   144  2.988586641199995E-012
                   145 -5.646498956592547E-005
                   146 -2.742141620056876E-012
                   147 -2.360806933253593E-006
                   148 -1.335951055973028E-005
                   149  5.062160961863111E-013
                   150 -1.261797681847253E-012
                   151 -9.108911328488447E-006
                   152 -2.097712873241125E-004
                   153 -4.181055165068385E-004
                   154  7.602752807225107E-005
                   155  4.063664517253920E-004
                   156  1.701917157454956E-012
                   157 -1.231009528302001E-005
                   158 -4.185193479263461E-004
                   159 -3.675877492336358E-012
                   160 -5.683584461574171E-005
                   161  1.971790174412948E-004
                   162 -1.522097350255142E-012
                   163  4.125104705918485E-004
                   164  3.440257223049364E-004
                   165 -9.087588131406462E-006
                   166  3.464997305400941E-013
                   167  5.131772101810056E-006
                   168 -3.225121135975030E-006
                   169  7.332112717013805E-014
                   170 -1.359649716494001E-004
                   171 -3.639074922403078E-012
                   172 -8.165299132538166E-005
                   173  3.366413916176540E-005
                   174  1.011551947792988E-012
                   175 -2.912184763111273E-005
                   176  2.563173006860340E-013
                   177 -1.471191087994778E-005
                   178 -5.791253811201784E-006
                   179  1.490735513530262E-013
                   180 -1.048073922218795E-013
                   181  2.787322890603561E-006
                   182 -1.689171731979015E-004
                   183 -4.843783333486868E-004
                   184  5.278721655606997E-005
                   185  2.502382079415620E-004
                   186  8.970520459158467E-012
                   187 -1.690715336716421E-005
                   188 -5.005285233363765E-005
                   189 -4.630995514066284E-012
                   190  8.843821651552205E-005
                   191  5.769033896164854E-005
                   192 -4.857918665403120E-012
                   193  5.605686504671835E-004
                   194 -1.167256353633605E-004
                   195  1.299741338565209E-005
                   196 -2.617386838126518E-012
                   197  2.814513724728108E-006
                   198  5.120215393172976E-006
                   199 -4.396893965285945E-012
                   200  5.301764220962420E-005
                   201  4.073160389076273E-012
                   202 -7.954159726118954E-005
                   203  6.637121555032490E-005
                   204  6.956045693912017E-012
                   205 -5.520504012106166E-006
                   206  1.108396656569436E-012
                   207  5.040509749066281E-006
                   208 -4.153653269699242E-006
                   209 -1.482236048184204E-012
                   210 -1.072869233394974E-012
                   211 -1.441915944793067E-006
                   212  4.352635410964219E-005
                   213 -1.477202906982489E-004
                   214 -1.077525167423957E-012
                   215  2.067065938049036E-004
                   216  1.710805362261744E-004
                   217  8.379960056509545E-005
                   218 -4.422774298341519E-004
                   219 -1.456046552273598E-013
                   220 -2.756357732468731E-004
                   221  1.765407463065736E-004
                   222 -3.175743694324556E-004
                   223 -6.058960010477803E-004
                   224  8.237443914145979E-013
                   225  3.896532004663454E-006
                   226 -5.034789404939274E-005
                   227 -2.468053311673901E-004
                   228 -5.181389548834914E-004
                   229 -5.904254012256786E-013
                   230 -4.691522792033864E-006
                   231 -2.949426035743234E-005
                   232 -6.830937037606276E-005
                   233 -5.071820655884096E-004
                   234  5.907442956190648E-013
                   235  4.241585371641554E-006
                   236 -2.542385853529361E-006
                   237 -1.118238355933606E-004
                   238 -4.282768519137418E-004
                   239  7.030122339085370E-013
                   240  2.059096177602211E-006
                   241  7.073508222767475E-007
                   242  1.556894601878303E-005
                   243 -6.004096695003632E-005
                   244 -1.983716115776974E-013
                   245  6.510634647242433E-008
                   246  1.920528061860726E-005
 Sym= __2_A__
 Ene=   2.00000000000000     
 Spin= Alpha
 Occup=    1.00000000000000     
                     1 -5.939189279673713E-005
                     2 -3.471854529596284E-004
                     3  3.003623602783126E-003
                     4  1.606146549599483E-004
                     5  1.302299127026233E-003
                     6  1.580762662705717E-012
                     7 -6.880328005341386E-005
                     8  3.066520889419755E-003
                     9 -1.154347416956586E-012
                    10 -1.163843375692051E-005
                    11 -1.085658707423698E-004
                    12  5.618828010090037E-013
                    13  2.003362122529807E-005
                    14 -4.219560396057738E-004
                    15  3.523987621004106E-005
                    16 -6.813282720224699E-013
                    17  3.166687219309253E-006
                    18  5.966475708652518E-005
                    19  6.880320848511925E-014
                    20 -7.433068825032309E-005
                    21  4.241096008419819E-012
                    22  2.704337538539990E-006
                    23 -1.883772936423842E-004
                    24 -8.791977605489042E-013
                    25  1.752251552490103E-004
                    26 -1.310375062913374E-012
                    27 -1.705282633408235E-006
                    28 -1.791422465509176E-005
                    29  5.579954090167698E-013
                    30 -8.497760430376605E-013
                    31 -3.854827400524587E-006
                    32   1.00100836778907     
                    33  9.368016915562365E-003
                    34  2.742125320589703E-003
                    35 -8.063194438241742E-003
                    36 -2.447658436286946E-012
                    37 -5.964486597815649E-005
                    38 -3.950462824407618E-003
                    39 -3.034633749664475E-012
                    40  5.263749582404060E-005
                    41  6.925941666216934E-004
                    42  3.707589512610678E-012
                    43  2.431630725676051E-005
                    44  4.346372148470821E-003
                    45  4.725974120977706E-004
                    46 -5.649750013256204E-013
                    47 -9.837246979992025E-007
                    48 -4.026514948738186E-004
                    49  2.185476214393426E-012
                    50  4.964509264889547E-004
                    51  7.548867079208800E-012
                    52  1.946434682900219E-005
                    53  9.139078472959972E-004
                    54  6.764103233787066E-013
                    55  3.785070394902877E-004
                    56  1.498072254327794E-012
                    57  2.006975591484811E-006
                    58 -1.802508244567814E-004
                    59 -2.134762786366336E-012
                    60  1.616865496882787E-012
                    61 -1.215541347840666E-006
                    62  8.760834194338846E-003
                    63 -2.094386065459032E-003
                    64 -2.839534005873373E-004
                    65  3.048093824623297E-003
                    66 -1.150287955286012E-011
                    67 -1.537688405679095E-006
                    68  8.890927836122392E-005
                    69  8.769834574546989E-012
                    70  6.811116166086027E-004
                    71  2.132580933447057E-005
                    72  1.048807741129300E-011
                    73 -2.067164559614467E-003
                    74  8.593900087444351E-005
                    75 -1.043623885187305E-005
                    76  1.025618122395321E-012
                    77  5.996957531001513E-006
                    78  2.803811740808238E-005
                    79 -8.362098160222747E-013
                    80  7.278501505472353E-004
                    81  5.429715403750988E-012
                    82 -3.767579610234363E-004
                    83 -4.738084291201118E-005
                    84 -6.238922272502831E-012
                    85  7.483722555280250E-005
                    86  4.708930535644756E-013
                    87  4.337678876726769E-005
                    88 -1.314583728903842E-004
                    89  3.040674075520327E-012
                    90 -1.261844656467478E-012
                    91  4.618189411705942E-005
                    92  8.950131142205770E-003
                    93 -2.104010819086593E-003
                    94 -2.769693141788679E-004
                    95  3.021630085115042E-003
                    96 -6.225902161696698E-013
                    97  1.236827918807259E-005
                    98  9.480868175926028E-005
                    99  1.301414009849611E-012
                   100 -6.529910305576732E-004
                   101  4.377650215876518E-005
                   102 -2.908084423014612E-012
                   103  2.067401575609040E-003
                   104  8.498903113743964E-005
                   105 -1.040035358605902E-005
                   106  6.036959113825516E-013
                   107 -8.563978332775982E-006
                   108  3.023089084686512E-005
                   109  1.603201871944354E-012
                   110  7.388381815980707E-004
                   111 -2.033955286400963E-012
                   112  3.699888180194007E-004
                   113 -4.031484045607392E-005
                   114 -1.869605432801394E-012
                   115  7.410918256120345E-005
                   116 -5.105838603695639E-012
                   117 -4.278524109120849E-005
                   118 -1.315307179876218E-004
                   119 -2.956877377009673E-012
                   120 -3.994390934083604E-013
                   121 -4.612164012520078E-005
                   122 -1.871457425092351E-004
                   123 -6.953212541304554E-004
                   124  2.268508541890753E-004
                   125 -1.109310116332035E-004
                   126 -1.336924669530851E-011
                   127 -3.679503029913354E-006
                   128 -3.320097066098788E-004
                   129  1.750770533120609E-011
                   130 -5.094163845467809E-005
                   131  5.414700490572844E-004
                   132 -2.109085476754705E-011
                   133  3.214098316081299E-004
                   134  7.583998470947773E-004
                   135 -1.281653883086986E-005
                   136 -4.739101055197430E-013
                   137  5.315232385240097E-005
                   138  1.480146848884245E-005
                   139 -9.066425183395181E-013
                   140 -2.829444547607275E-004
                   141  2.736697965497426E-012
                   142 -1.902526129748126E-004
                   143 -7.279594995736474E-006
                   144  2.352196976248396E-012
                   145  1.751594462996052E-006
                   146  3.534634015183211E-012
                   147 -4.625890745786629E-005
                   148 -4.285938712552998E-005
                   149 -2.329207857870705E-012
                   150  2.659597608821218E-012
                   151 -5.059104499217985E-006
                   152 -1.729225035477429E-004
                   153 -6.926034068596778E-004
                   154  2.283161179363649E-004
                   155 -1.219197210632109E-004
                   156 -1.883910291698984E-012
                   157  3.390681360825330E-006
                   158 -3.346506666754433E-004
                   159 -8.203207760336293E-013
                   160  4.558607428851812E-005