[Molden Format]
[Atoms] AU
  N     1    7     0.0000000000    0.0000000000   -4.2907334100        
  C     2    6     0.0000000000    0.0000000000   -1.7772236300        
  C     3    6     0.0000000000   -2.3389203600   -0.4111016300        
  C     4    6     0.0000000000    2.3389203600   -0.4111016300        
  C     5    6     0.0000000000   -2.2998668500    2.1639215300        
  C     6    6     0.0000000000    2.2998668500    2.1639215300        
  C     7    6     0.0000000000    0.0000000000    3.4755251800        
  H     8    1     0.0000000000   -2.0907907800   -5.5805758500        
  H     9    1     0.0000000000    1.7691306600   -5.3821385500        
  H    10    1     0.0000000000   -4.0745407300   -1.4447408500        
  H    11    1     0.0000000000    4.0745407300   -1.4447408500        
  H    12    1     0.0000000000   -4.0420632100    3.1963889500        
  H    13    1     0.0000000000    4.0420632100    3.1963889500        
  H    14    1     0.0000000000    0.0000000000    5.5020335600        
[5D]
[7F]
[GTO]
  1  0
   s    12 1.00
  0.114200D+05  0.172695D-04
  0.171200D+04  0.134411D-03
  0.389300D+03  0.694561D-03
  0.110000D+03  0.278531D-02
  0.355700D+02  0.863457D-02
  0.125400D+02  0.199805D-01
  0.464400D+01  0.262908D-01
  0.129300D+01 -0.243845D-01
  0.511800D+00 -0.924934D-01
  0.178700D+00 -0.339683D+00
  0.246240D-01  0.345111D+00
  0.112530D-01  0.752750D+00
   s    10 1.00
  0.114200D+05  0.523000D-03
  0.171200D+04  0.404500D-02
  0.389300D+03  0.207750D-01
  0.110000D+03  0.807269D-01
  0.355700D+02  0.233074D+00
  0.125400D+02  0.433501D+00
  0.464400D+01  0.347472D+00
  0.129300D+01  0.412620D-01
  0.511800D+00 -0.850799D-02
  0.178700D+00  0.238400D-02
   s    10 1.00
  0.114200D+05 -0.115000D-03
  0.171200D+04 -0.895000D-03
  0.389300D+03 -0.462400D-02
  0.110000D+03 -0.185280D-01
  0.355700D+02 -0.573390D-01
  0.125400D+02 -0.132076D+00
  0.464400D+01 -0.172510D+00
  0.129300D+01  0.151814D+00
  0.511800D+00  0.599944D+00
  0.178700D+00  0.387462D+00
   s     1 1.00
  0.129300D+01  0.100000D+01
   s     1 1.00
  0.178700D+00  0.100000D+01
   p     5 1.00
  0.266300D+02  0.146700D-01
  0.594800D+01  0.917640D-01
  0.174200D+01  0.298683D+00
  0.555000D+00  0.498487D+00
  0.172500D+00  0.337023D+00
   p     1 1.00
  0.174200D+01  0.100000D+01
   p     1 1.00
  0.555000D+00  0.100000D+01
   d     1 1.00
  0.165400D+01  0.100000D+01
   d     1 1.00
  0.469000D+00  0.100000D+01
   f     1 1.00
  0.109300D+01  0.100000D+01
  
  2  0
   s    10 1.00
  0.823600D+04  0.531000D-03
  0.123500D+04  0.410800D-02
  0.280800D+03  0.210870D-01
  0.792700D+02  0.818530D-01
  0.255900D+02  0.234817D+00
  0.899700D+01  0.434401D+00
  0.331900D+01  0.346129D+00
  0.905900D+00  0.393780D-01
  0.364300D+00 -0.898300D-02
  0.128500D+00  0.238500D-02
   s    10 1.00
  0.823600D+04 -0.113000D-03
  0.123500D+04 -0.878000D-03
  0.280800D+03 -0.454000D-02
  0.792700D+02 -0.181330D-01
  0.255900D+02 -0.557600D-01
  0.899700D+01 -0.126895D+00
  0.331900D+01 -0.170352D+00
  0.905900D+00  0.140382D+00
  0.364300D+00  0.598684D+00
  0.128500D+00  0.395389D+00
   s     1 1.00
  0.905900D+00  0.100000D+01
   s     1 1.00
  0.364300D+00  0.100000D+01
   p     5 1.00
  0.187100D+02  0.140310D-01
  0.413300D+01  0.868660D-01
  0.120000D+01  0.290216D+00
  0.382700D+00  0.501008D+00
  0.120900D+00  0.343406D+00
   p     1 1.00
  0.382700D+00  0.100000D+01
   p     1 1.00
  0.120900D+00  0.100000D+01
   d     1 1.00
  0.109700D+01  0.100000D+01
   d     1 1.00
  0.318000D+00  0.100000D+01
   f     1 1.00
  0.761000D+00  0.100000D+01
  
  3  0
   s    10 1.00
  0.823600D+04  0.531000D-03
  0.123500D+04  0.410800D-02
  0.280800D+03  0.210870D-01
  0.792700D+02  0.818530D-01
  0.255900D+02  0.234817D+00
  0.899700D+01  0.434401D+00
  0.331900D+01  0.346129D+00
  0.905900D+00  0.393780D-01
  0.364300D+00 -0.898300D-02
  0.128500D+00  0.238500D-02
   s    10 1.00
  0.823600D+04 -0.113000D-03
  0.123500D+04 -0.878000D-03
  0.280800D+03 -0.454000D-02
  0.792700D+02 -0.181330D-01
  0.255900D+02 -0.557600D-01
  0.899700D+01 -0.126895D+00
  0.331900D+01 -0.170352D+00
  0.905900D+00  0.140382D+00
  0.364300D+00  0.598684D+00
  0.128500D+00  0.395389D+00
   s     1 1.00
  0.905900D+00  0.100000D+01
   s     1 1.00
  0.364300D+00  0.100000D+01
   p     5 1.00
  0.187100D+02  0.140310D-01
  0.413300D+01  0.868660D-01
  0.120000D+01  0.290216D+00
  0.382700D+00  0.501008D+00
  0.120900D+00  0.343406D+00
   p     1 1.00
  0.382700D+00  0.100000D+01
   p     1 1.00
  0.120900D+00  0.100000D+01
   d     1 1.00
  0.109700D+01  0.100000D+01
   d     1 1.00
  0.318000D+00  0.100000D+01
   f     1 1.00
  0.761000D+00  0.100000D+01
  
  4  0
   s    10 1.00
  0.823600D+04  0.531000D-03
  0.123500D+04  0.410800D-02
  0.280800D+03  0.210870D-01
  0.792700D+02  0.818530D-01
  0.255900D+02  0.234817D+00
  0.899700D+01  0.434401D+00
  0.331900D+01  0.346129D+00
  0.905900D+00  0.393780D-01
  0.364300D+00 -0.898300D-02
  0.128500D+00  0.238500D-02
   s    10 1.00
  0.823600D+04 -0.113000D-03
  0.123500D+04 -0.878000D-03
  0.280800D+03 -0.454000D-02
  0.792700D+02 -0.181330D-01
  0.255900D+02 -0.557600D-01
  0.899700D+01 -0.126895D+00
  0.331900D+01 -0.170352D+00
  0.905900D+00  0.140382D+00
  0.364300D+00  0.598684D+00
  0.128500D+00  0.395389D+00
   s     1 1.00
  0.905900D+00  0.100000D+01
   s     1 1.00
  0.364300D+00  0.100000D+01
   p     5 1.00
  0.187100D+02  0.140310D-01
  0.413300D+01  0.868660D-01
  0.120000D+01  0.290216D+00
  0.382700D+00  0.501008D+00
  0.120900D+00  0.343406D+00
   p     1 1.00
  0.382700D+00  0.100000D+01
   p     1 1.00
  0.120900D+00  0.100000D+01
   d     1 1.00
  0.109700D+01  0.100000D+01
   d     1 1.00
  0.318000D+00  0.100000D+01
   f     1 1.00
  0.761000D+00  0.100000D+01
  
  5  0
   s    10 1.00
  0.823600D+04  0.531000D-03
  0.123500D+04  0.410800D-02
  0.280800D+03  0.210870D-01
  0.792700D+02  0.818530D-01
  0.255900D+02  0.234817D+00
  0.899700D+01  0.434401D+00
  0.331900D+01  0.346129D+00
  0.905900D+00  0.393780D-01
  0.364300D+00 -0.898300D-02
  0.128500D+00  0.238500D-02
   s    10 1.00
  0.823600D+04 -0.113000D-03
  0.123500D+04 -0.878000D-03
  0.280800D+03 -0.454000D-02
  0.792700D+02 -0.181330D-01
  0.255900D+02 -0.557600D-01
  0.899700D+01 -0.126895D+00
  0.331900D+01 -0.170352D+00
  0.905900D+00  0.140382D+00
  0.364300D+00  0.598684D+00
  0.128500D+00  0.395389D+00
   s     1 1.00
  0.905900D+00  0.100000D+01
   s     1 1.00
  0.364300D+00  0.100000D+01
   p     5 1.00
  0.187100D+02  0.140310D-01
  0.413300D+01  0.868660D-01
  0.120000D+01  0.290216D+00
  0.382700D+00  0.501008D+00
  0.120900D+00  0.343406D+00
   p     1 1.00
  0.382700D+00  0.100000D+01
   p     1 1.00
  0.120900D+00  0.100000D+01
   d     1 1.00
  0.109700D+01  0.100000D+01
   d     1 1.00
  0.318000D+00  0.100000D+01
   f     1 1.00
  0.761000D+00  0.100000D+01
  
  6  0
   s    10 1.00
  0.823600D+04  0.531000D-03
  0.123500D+04  0.410800D-02
  0.280800D+03  0.210870D-01
  0.792700D+02  0.818530D-01
  0.255900D+02  0.234817D+00
  0.899700D+01  0.434401D+00
  0.331900D+01  0.346129D+00
  0.905900D+00  0.393780D-01
  0.364300D+00 -0.898300D-02
  0.128500D+00  0.238500D-02
   s    10 1.00
  0.823600D+04 -0.113000D-03
  0.123500D+04 -0.878000D-03
  0.280800D+03 -0.454000D-02
  0.792700D+02 -0.181330D-01
  0.255900D+02 -0.557600D-01
  0.899700D+01 -0.126895D+00
  0.331900D+01 -0.170352D+00
  0.905900D+00  0.140382D+00
  0.364300D+00  0.598684D+00
  0.128500D+00  0.395389D+00
   s     1 1.00
  0.905900D+00  0.100000D+01
   s     1 1.00
  0.364300D+00  0.100000D+01
   p     5 1.00
  0.187100D+02  0.140310D-01
  0.413300D+01  0.868660D-01
  0.120000D+01  0.290216D+00
  0.382700D+00  0.501008D+00
  0.120900D+00  0.343406D+00
   p     1 1.00
  0.382700D+00  0.100000D+01
   p     1 1.00
  0.120900D+00  0.100000D+01
   d     1 1.00
  0.109700D+01  0.100000D+01
   d     1 1.00
  0.318000D+00  0.100000D+01
   f     1 1.00
  0.761000D+00  0.100000D+01
  
  7  0
   s    10 1.00
  0.823600D+04  0.531000D-03
  0.123500D+04  0.410800D-02
  0.280800D+03  0.210870D-01
  0.792700D+02  0.818530D-01
  0.255900D+02  0.234817D+00
  0.899700D+01  0.434401D+00
  0.331900D+01  0.346129D+00
  0.905900D+00  0.393780D-01
  0.364300D+00 -0.898300D-02
  0.128500D+00  0.238500D-02
   s    10 1.00
  0.823600D+04 -0.113000D-03
  0.123500D+04 -0.878000D-03
  0.280800D+03 -0.454000D-02
  0.792700D+02 -0.181330D-01
  0.255900D+02 -0.557600D-01
  0.899700D+01 -0.126895D+00
  0.331900D+01 -0.170352D+00
  0.905900D+00  0.140382D+00
  0.364300D+00  0.598684D+00
  0.128500D+00  0.395389D+00
   s     1 1.00
  0.905900D+00  0.100000D+01
   s     1 1.00
  0.364300D+00  0.100000D+01
   p     5 1.00
  0.187100D+02  0.140310D-01
  0.413300D+01  0.868660D-01
  0.120000D+01  0.290216D+00
  0.382700D+00  0.501008D+00
  0.120900D+00  0.343406D+00
   p     1 1.00
  0.382700D+00  0.100000D+01
   p     1 1.00
  0.120900D+00  0.100000D+01
   d     1 1.00
  0.109700D+01  0.100000D+01
   d     1 1.00
  0.318000D+00  0.100000D+01
   f     1 1.00
  0.761000D+00  0.100000D+01
  
  8  0
   s     4 1.00
  0.130100D+02  0.196850D-01
  0.196200D+01  0.137977D+00
  0.444600D+00  0.478148D+00
  0.122000D+00  0.501240D+00
   s     1 1.00
  0.122000D+00  0.100000D+01
   p     1 1.00
  0.727000D+00  0.100000D+01
  
  9  0
   s     4 1.00
  0.130100D+02  0.196850D-01
  0.196200D+01  0.137977D+00
  0.444600D+00  0.478148D+00
  0.122000D+00  0.501240D+00
   s     1 1.00
  0.122000D+00  0.100000D+01
   p     1 1.00
  0.727000D+00  0.100000D+01
  
 10  0
   s     4 1.00
  0.130100D+02  0.196850D-01
  0.196200D+01  0.137977D+00
  0.444600D+00  0.478148D+00
  0.122000D+00  0.501240D+00
   s     1 1.00
  0.122000D+00  0.100000D+01
   p     1 1.00
  0.727000D+00  0.100000D+01
  
 11  0
   s     4 1.00
  0.130100D+02  0.196850D-01
  0.196200D+01  0.137977D+00
  0.444600D+00  0.478148D+00
  0.122000D+00  0.501240D+00
   s     1 1.00
  0.122000D+00  0.100000D+01
   p     1 1.00
  0.727000D+00  0.100000D+01
  
 12  0
   s     4 1.00
  0.130100D+02  0.196850D-01
  0.196200D+01  0.137977D+00
  0.444600D+00  0.478148D+00
  0.122000D+00  0.501240D+00
   s     1 1.00
  0.122000D+00  0.100000D+01
   p     1 1.00
  0.727000D+00  0.100000D+01
  
 13  0
   s     4 1.00
  0.130100D+02  0.196850D-01
  0.196200D+01  0.137977D+00
  0.444600D+00  0.478148D+00
  0.122000D+00  0.501240D+00
   s     1 1.00
  0.122000D+00  0.100000D+01
   p     1 1.00
  0.727000D+00  0.100000D+01
  
 14  0
   s     4 1.00
  0.130100D+02  0.196850D-01
  0.196200D+01  0.137977D+00
  0.444600D+00  0.478148D+00
  0.122000D+00  0.501240D+00
   s     1 1.00
  0.122000D+00  0.100000D+01
   p     1 1.00
  0.727000D+00  0.100000D+01
  
[MO]
 Sym= __1_A__
 Ene=   1.00000000000000     
 Spin= Alpha
 Occup=    1.00000000000000     
                     1 -8.026121352494362E-006
                     2  0.998501990019199     
                     3  4.886566791479993E-003
                     4  1.649522194527459E-003
                     5  2.965750536954208E-003
                     6 -1.510394539144528E-011
                     7  1.070357936019223E-003
                     8  5.284158400114880E-003
                     9 -2.662022163098702E-012
                    10 -8.312211767191549E-005
                    11 -2.058475131497317E-004
                    12 -9.479373406866737E-013
                    13 -6.097248014241900E-004
                    14 -8.246647379250335E-004
                    15  2.580897122174892E-004
                    16  4.869473466166064E-012
                    17 -4.917101179245201E-005
                    18  5.247237056983998E-006
                    19 -2.448018000628799E-014
                    20  9.124759048839528E-005
                    21 -3.181268439303663E-012
                    22  1.787105201574178E-004
                    23  4.606556981303300E-004
                    24  5.612020071929842E-012
                    25 -1.218932539213980E-004
                    26  6.897878941166589E-013
                    27  5.625561248756702E-006
                    28  2.027797759028182E-005
                    29 -1.465579891299785E-013
                    30  1.902850701658511E-012
                    31 -1.378898318518563E-006
                    32 -3.154818698482376E-004
                    33  2.099244215435437E-003
                    34  1.567904287025632E-004
                    35 -2.064176218330096E-004
                    36 -2.082780414341481E-011
                    37 -7.345667566392848E-005
                    38 -5.704942148907688E-003
                    39  8.260168885687508E-012
                    40  1.106039822862335E-004
                    41  1.608900145090808E-004
                    42  5.875709363205019E-012
                    43 -4.814031338103161E-004
                    44  4.826431793632176E-003
                    45  2.855021118564676E-004
                    46 -5.452812475937702E-012
                    47 -1.520258081722749E-005
                    48  1.166074142669820E-004
                    49 -1.500115629602466E-012
                    50  1.475466871969623E-004
                    51  6.588882786165100E-012
                    52  2.086903943839791E-004
                    53 -3.356800796633376E-004
                    54 -8.065195524635875E-012
                    55 -9.942256789692041E-005
                    56 -4.858467350467247E-013
                    57  5.882291718596791E-006
                    58  5.343354633459726E-005
                    59 -3.111938331452091E-012
                    60 -2.041270781999521E-012
                    61 -3.311484417393665E-006
                    62 -2.729230375916627E-004
                    63 -1.587198173665960E-003
                    64  1.235571232821801E-005
                    65  9.497973359166778E-004
                    66 -6.106753375020582E-012
                    67 -6.957040713453946E-004
                    68  6.603536321136904E-004
                    69 -8.723281443534017E-012
                    70  1.046260750038175E-004
                    71  6.202083312019652E-004
                    72 -9.753051874730103E-013
                    73 -1.009939952650199E-003
                    74  2.045597534060696E-005
                    75  8.092765796162250E-005
                    76 -3.366036563275566E-012
                    77 -1.176831335232064E-005
                    78  2.270501112999804E-005
                    79 -3.215974884081715E-012
                    80  2.271504368098721E-006
                    81  1.024891048970399E-011
                    82  1.159009707964868E-004
                    83 -4.669007422364750E-005
                    84 -1.238924223835429E-011
                    85 -1.065370067610459E-004
                    86 -4.916998087501753E-012
                    87 -2.928625712046889E-005
                    88  2.802927071476150E-005
                    89  3.965772626142470E-012
                    90  2.128700255483347E-013
                    91  9.761365958849162E-006
                    92 -2.155291090002515E-004
                    93 -1.494402433042478E-003
                    94  9.341235699278779E-005
                    95  4.136066780285744E-004
                    96 -7.536797401643047E-012
                    97  7.096136081857737E-004
                    98  7.932406277013477E-004
                    99  2.146252935705047E-012
                   100  1.288336905505769E-004
                   101  5.263316662625266E-004
                   102  2.267156125842238E-012
                   103  6.534554604462159E-004
                   104 -5.189147840165475E-004
                   105  7.775873976187950E-005
                   106 -5.499669471291309E-012
                   107 -1.693195528845250E-006
                   108  3.423664724618536E-005
                   109 -1.138072196945246E-012
                   110  3.449063797400487E-005
                   111 -2.737911424467273E-012
                   112 -1.022741157549890E-004
                   113  3.113179808090120E-005
                   114  2.385010641632517E-012
                   115 -8.062765804984171E-005
                   116  1.442115972435513E-012
                   117  2.262478339678787E-005
                   118  1.530706702425980E-005
                   119 -5.143740708751614E-013
                   120 -1.510821400983062E-012
                   121 -1.355630177140113E-005
                   122 -1.828186634850452E-004
                   123 -2.313158739148524E-004
                   124  1.215285067185374E-004
                   125  2.224610688069236E-004
                   126  2.450567037228068E-011
                   127  1.883005252033319E-005
                   128 -6.039626609900617E-004
                   129 -4.021133310807255E-011
                   130  9.019478829472527E-005
                   131  3.995659389210528E-004
                   132  2.173577814919032E-012
                   133 -3.580754619219474E-005
                   134  1.030382861234195E-003
                   135 -2.518730552547432E-005
                   136  2.187802716534903E-012
                   137 -5.620048005283442E-007
                   138 -3.349456309844536E-006
                   139 -5.698201067635579E-012
                   140 -2.431637020500597E-004
                   141 -2.354038652078849E-012
                   142  1.680749475771106E-004
                   143  1.043701364950657E-005
                   144 -1.157326206632918E-012
                   145 -4.747907315648894E-005
                   146  5.478097497257569E-012
                   147  5.789592098524772E-007
                   148 -1.196378990880188E-005
                   149 -6.744641998342121E-012
                   150 -2.179989911784522E-013
                   151 -6.306263374667292E-006
                   152 -1.666450820356426E-004
                   153 -1.506572000261237E-004
                   154  9.375687741654349E-005
                   155  2.259039907142069E-004
                   156  3.230146906743221E-012
                   157 -2.428446734227699E-005
                   158 -6.271817043808640E-004
                   159  2.906161817012601E-012
                   160 -5.452573718729956E-005
                   161  2.824169022067506E-004
                   162 -9.988740876252011E-012
                   163  3.384901994352169E-004
                   164  5.108523843718215E-004
                   165 -1.305838639339659E-005
                   166  4.549174207659882E-012
                   167  3.407625992196106E-007
                   168 -1.594614580494249E-006
                   169  4.225057010317531E-013
                   170 -1.654638946626695E-004
                   171 -2.780502199473814E-012
                   172 -1.202499175432143E-004
                   173  2.760043786465540E-005
                   174  3.066533761251984E-012
                   175 -3.386658339504987E-005
                   176  5.170926262376241E-012
                   177 -7.746037430317706E-006
                   178 -7.684042272001302E-006
                   179 -5.904989877997580E-012
                   180  9.616815297698347E-013
                   181  3.089375829350730E-006
                   182 -1.319850354292882E-004
                   183 -3.585097603358345E-004
                   184  4.142092918576738E-005
                   185  1.682127192699820E-004
                   186  2.789636656914335E-012
                   187 -1.012042207360945E-005
                   188 -4.984168290622411E-005
                   189 -3.163650524766740E-012
                   190  4.529373244449765E-005
                   191  3.920283914205790E-005
                   192  8.500877993501221E-012
                   193  3.017539355350941E-004
                   194 -3.798264302023075E-005
                   195  1.622975158820368E-005
                   196  4.697086185406584E-012
                   197  1.017254304082924E-006
                   198  7.146492682893866E-006
                   199  1.258754970285922E-012
                   200  5.339655886283532E-005
                   201 -1.111994532792597E-011
                   202 -3.784501737808963E-005
                   203  5.896921676309544E-005
                   204 -9.929713295168552E-012
                   205 -8.096903908946062E-006
                   206  6.795292194250821E-012
                   207  2.078764386249423E-006
                   208 -1.291833644745866E-006
                   209  4.990100446064037E-012
                   210 -4.883982273572334E-013
                   211 -6.817131445044060E-007
                   212  6.768454282145709E-004
                   213 -5.824898210019604E-004
                   214 -6.018408176535877E-012
                   215  2.852815712632443E-004
                   216  2.396602958802580E-004
                   217  2.141963611233698E-003
                   218 -1.488523746389044E-003
                   219 -5.242227576759904E-012
                   220 -4.103179718760430E-004
                   221  3.062307633030870E-004
                   222 -4.491666268557384E-004
                   223 -4.263573755841048E-004
                   224 -5.609022100206412E-012
                   225 -5.363939000689446E-006
                   226 -4.329577213233304E-005
                   227 -4.642471306387767E-004
                   228 -2.974756892222889E-004
                   229 -6.191635474990705E-012
                   230  7.117195302367009E-006
                   231 -3.306822789559193E-005
                   232 -1.526918360682977E-004
                   233 -4.464036028997315E-004
                   234  1.446803121437395E-012
                   235 -8.493055576762513E-007
                   236  1.924431527235349E-006
                   237 -1.781429172874218E-004
                   238 -4.383026102631597E-004
                   239  6.161882452767285E-014
                   240  2.356653592015431E-006
                   241  6.460827130713653E-007
                   242  4.317313285264278E-005
                   243 -9.180279726888039E-005
                   244  3.647018480905036E-012
                   245 -4.768759985990929E-007
                   246  1.608533716113205E-005
 Sym= __2_A__
 Ene=   2.00000000000000     
 Spin= Alpha
 Occup=    1.00000000000000     
                     1 -5.556272097556067E-005
                     2 -2.829350673630706E-004
                     3  2.723279250931176E-003
                     4  1.329592318775604E-004
                     5  1.272920816230971E-003
                     6 -3.003114876951199E-012
                     7 -1.274840582058077E-004
                     8  3.106763096543003E-003
                     9  1.699695036213812E-012
                    10 -2.707396333464536E-005
                    11 -8.162192613924809E-005
                    12 -6.502091135423442E-012
                    13  6.245083806213808E-005
                    14 -4.804132814699973E-004
                    15  4.064999045635669E-005
                    16 -5.620185456278526E-012
                    17 -3.810365745673143E-006
                    18  6.412873321494352E-005
                    19 -6.888451396859244E-012
                    20 -1.588200637318007E-004
                    21 -1.212350257952883E-012
                    22  1.717187340709575E-005
                    23 -2.495491508317846E-004
                    24  1.563315486902306E-011
                    25  1.788038962624036E-004
                    26 -6.056686428401241E-012
                    27 -8.339200237398264E-006
                    28 -9.263171345829007E-006
                    29  1.959396225880349E-012
                    30  3.536502034547534E-012
                    31 -9.285305267091509E-006
                    32   1.00104097006386     
                    33  9.369556716864779E-003
                    34  2.675712809062320E-003
                    35 -7.916885478171045E-003
                    36  9.886327046990586E-012
                    37 -3.399299257062368E-005
                    38 -4.149735638137886E-003
                    39 -2.146010326508478E-011
                    40  1.137109356455165E-005
                    41  8.919647253777673E-004
                    42 -9.765033306037848E-012
                    43  4.000515166346563E-005
                    44  4.412505575701545E-003
                    45  4.766446816799835E-004
                    46 -3.367028563724129E-012
                    47 -6.211212056803503E-006
                    48 -4.169723542345852E-004
                    49  1.477876174922171E-012
                    50  5.322934131646755E-004
                    51 -1.067520525779602E-011
                    52  4.319775573369083E-005
                    53  9.188996781589688E-004
                    54 -2.001682657037440E-011
                    55  3.831082115189772E-004
                    56  6.726831597419134E-012
                    57 -3.637501034421390E-006
                    58 -1.941678844912973E-004
                    59 -8.112682200958772E-013
                    60 -8.414037143049469E-012
                    61  7.660819864149820E-008
                    62  7.723286049740358E-003
                    63 -2.079846558498078E-003
                    64 -2.762810227773180E-004
                    65  3.036036568512297E-003
                    66  9.218019796159963E-012
                    67  4.373941466750803E-005
                    68  4.755236416998883E-005
                    69 -6.015106020795739E-012
                    70  6.424104224656723E-004
                    71  2.071425478725672E-005
                    72  2.927026918209134E-012
                    73 -2.073752763821536E-003
                    74  8.865785454723118E-005
                    75 -1.129851644642851E-005
                    76 -9.676894707265190E-013
                    77  9.256769783442665E-006
                    78  2.960052950632110E-005
                    79  3.173984357087726E-012
                    80  7.344472668048657E-004
                    81  6.769451155427356E-012
                    82 -3.915236891081912E-004
                    83 -2.997479986680016E-005
                    84  3.891291749365718E-012
                    85  7.445535444295565E-005
                    86  1.667959037519980E-012
                    87  4.518645383708729E-005
                    88 -1.299734924915560E-004
                    89 -6.182579651826316E-012
                    90  7.199052145082357E-013
                    91  4.958738537961349E-005
                    92  7.905414838750967E-003
                    93 -2.102170023732627E-003
                    94 -2.762361844013407E-004
                    95  3.023556457068081E-003
                    96 -1.597624932041279E-011
                    97 -2.781413271214233E-005
                    98  5.532662258361528E-005
                    99  8.782917120141121E-012
                   100 -6.142193707283206E-004
                   101  3.674439746245172E-005
                   102  5.398604401940352E-012
                   103  2.089160359773639E-003
                   104  1.079821997153012E-004
                   105 -1.289447857301254E-005
                   106 -3.273257750225995E-012
                   107 -1.244245512091129E-005
                   108  3.046575272509258E-005
                   109  3.323621447886346E-012
                   110  7.614425201697274E-004
                   111 -1.661240694887845E-011
                   112  3.984794709008947E-004
                   113 -2.231442006019766E-005
                   114 -1.781868700724454E-011
                   115  7.373173497873476E-005
                   116 -5.950515530316555E-012
                   117 -4.469462020622546E-005
                   118 -1.286205004989691E-004
                   119  8.541105396172792E-012
                   120  1.792430739568324E-012
                   121 -4.721059357072002E-005
                   122 -2.186093767351325E-004
                   123 -7.219871042847808E-004
                   124  2.244796832486558E-004
                   125 -1.025931107520104E-004
                   126 -2.661386445489989E-012
                   127 -1.061419486679659E-005
                   128 -2.995433527528274E-004
                   129  7.722739551056056E-012
                   130 -3.548270133012141E-005
                   131  5.312798068797732E-004
                   132  1.399237057989660E-012
                   133  3.190839293235534E-004
                   134  7.466719100349601E-004
                   135 -1.300293571968579E-005
                   136 -1.643042643562856E-012
                   137  5.257131978965080E-005
                   138  1.452267693733215E-005
                   139  7.254446366367176E-012
                   140 -2.838863832523145E-004
                   141  9.427864748088324E-012
                   142 -2.022152323123004E-004
                   143 -9.990848043311103E-006
                   144  7.373810552996147E-012
                   145  1.549163913623416E-006
                   146 -1.979843793303639E-012
                   147 -4.425663465967848E-005
                   148 -4.113486558374618E-005
                   149  4.036289583600263E-012
                   150  7.386378872960852E-012
                   151 -5.306070249543708E-006
                   152 -2.056799843712310E-004
                   153 -7.219808827260164E-004
                   154  2.276034111048042E-004
                   155 -1.225308032605215E-004
                   156 -3.545960716997533E-012
                   157  1.032349515085532E-005
                   158 -3.011163386356304E-004
                   159  1.456712612656664E-011
                   160  2.322817643627329E-005