[Molden Format]
[Atoms] AU
  N     1    7    -4.5082829200   -0.1342819900   -0.4228200100        
  C     2    6    -1.7496705200   -0.0824342700   -0.1838819400        
  C     3    6    -0.3491890900    0.2202010900   -2.3813599000        
  C     4    6    -0.4819141000   -0.3194027500    2.1144844200        
  C     5    6     2.2679837200    0.2851297300   -2.2867536700        
  C     6    6     2.1285900100   -0.2535069600    2.1993448600        
  C     7    6     3.5096699900    0.0491470500   -0.0030301700        
  H     8    1    -5.2360393300   -2.3263659700    0.8673061800        
  H     9    1    -5.2915135300    1.5208285600    1.2149402000        
  H    10    1    -1.3260875200    0.4019365300   -4.1451509600        
  H    11    1    -1.5448115400   -0.5543420500    3.8263524900        
  H    12    1     3.3318141500    0.5199799700   -3.9976458500        
  H    13    1     3.0845146800   -0.4378414600    3.9798216900        
  H    14    1     5.5368142800    0.0998677000    0.0666404700        
[5D]
[7F]
[GTO]
  1  0
   s    12 1.00
  0.114200D+05  0.172695D-04
  0.171200D+04  0.134411D-03
  0.389300D+03  0.694561D-03
  0.110000D+03  0.278531D-02
  0.355700D+02  0.863457D-02
  0.125400D+02  0.199805D-01
  0.464400D+01  0.262908D-01
  0.129300D+01 -0.243845D-01
  0.511800D+00 -0.924934D-01
  0.178700D+00 -0.339683D+00
  0.246240D-01  0.345111D+00
  0.112530D-01  0.752750D+00
   s    10 1.00
  0.114200D+05  0.523000D-03
  0.171200D+04  0.404500D-02
  0.389300D+03  0.207750D-01
  0.110000D+03  0.807269D-01
  0.355700D+02  0.233074D+00
  0.125400D+02  0.433501D+00
  0.464400D+01  0.347472D+00
  0.129300D+01  0.412620D-01
  0.511800D+00 -0.850799D-02
  0.178700D+00  0.238400D-02
   s    10 1.00
  0.114200D+05 -0.115000D-03
  0.171200D+04 -0.895000D-03
  0.389300D+03 -0.462400D-02
  0.110000D+03 -0.185280D-01
  0.355700D+02 -0.573390D-01
  0.125400D+02 -0.132076D+00
  0.464400D+01 -0.172510D+00
  0.129300D+01  0.151814D+00
  0.511800D+00  0.599944D+00
  0.178700D+00  0.387462D+00
   s     1 1.00
  0.129300D+01  0.100000D+01
   s     1 1.00
  0.178700D+00  0.100000D+01
   p     5 1.00
  0.266300D+02  0.146700D-01
  0.594800D+01  0.917640D-01
  0.174200D+01  0.298683D+00
  0.555000D+00  0.498487D+00
  0.172500D+00  0.337023D+00
   p     1 1.00
  0.174200D+01  0.100000D+01
   p     1 1.00
  0.555000D+00  0.100000D+01
   d     1 1.00
  0.165400D+01  0.100000D+01
   d     1 1.00
  0.469000D+00  0.100000D+01
   f     1 1.00
  0.109300D+01  0.100000D+01
  
  2  0
   s    10 1.00
  0.823600D+04  0.531000D-03
  0.123500D+04  0.410800D-02
  0.280800D+03  0.210870D-01
  0.792700D+02  0.818530D-01
  0.255900D+02  0.234817D+00
  0.899700D+01  0.434401D+00
  0.331900D+01  0.346129D+00
  0.905900D+00  0.393780D-01
  0.364300D+00 -0.898300D-02
  0.128500D+00  0.238500D-02
   s    10 1.00
  0.823600D+04 -0.113000D-03
  0.123500D+04 -0.878000D-03
  0.280800D+03 -0.454000D-02
  0.792700D+02 -0.181330D-01
  0.255900D+02 -0.557600D-01
  0.899700D+01 -0.126895D+00
  0.331900D+01 -0.170352D+00
  0.905900D+00  0.140382D+00
  0.364300D+00  0.598684D+00
  0.128500D+00  0.395389D+00
   s     1 1.00
  0.905900D+00  0.100000D+01
   s     1 1.00
  0.364300D+00  0.100000D+01
   p     5 1.00
  0.187100D+02  0.140310D-01
  0.413300D+01  0.868660D-01
  0.120000D+01  0.290216D+00
  0.382700D+00  0.501008D+00
  0.120900D+00  0.343406D+00
   p     1 1.00
  0.382700D+00  0.100000D+01
   p     1 1.00
  0.120900D+00  0.100000D+01
   d     1 1.00
  0.109700D+01  0.100000D+01
   d     1 1.00
  0.318000D+00  0.100000D+01
   f     1 1.00
  0.761000D+00  0.100000D+01
  
  3  0
   s    10 1.00
  0.823600D+04  0.531000D-03
  0.123500D+04  0.410800D-02
  0.280800D+03  0.210870D-01
  0.792700D+02  0.818530D-01
  0.255900D+02  0.234817D+00
  0.899700D+01  0.434401D+00
  0.331900D+01  0.346129D+00
  0.905900D+00  0.393780D-01
  0.364300D+00 -0.898300D-02
  0.128500D+00  0.238500D-02
   s    10 1.00
  0.823600D+04 -0.113000D-03
  0.123500D+04 -0.878000D-03
  0.280800D+03 -0.454000D-02
  0.792700D+02 -0.181330D-01
  0.255900D+02 -0.557600D-01
  0.899700D+01 -0.126895D+00
  0.331900D+01 -0.170352D+00
  0.905900D+00  0.140382D+00
  0.364300D+00  0.598684D+00
  0.128500D+00  0.395389D+00
   s     1 1.00
  0.905900D+00  0.100000D+01
   s     1 1.00
  0.364300D+00  0.100000D+01
   p     5 1.00
  0.187100D+02  0.140310D-01
  0.413300D+01  0.868660D-01
  0.120000D+01  0.290216D+00
  0.382700D+00  0.501008D+00
  0.120900D+00  0.343406D+00
   p     1 1.00
  0.382700D+00  0.100000D+01
   p     1 1.00
  0.120900D+00  0.100000D+01
   d     1 1.00
  0.109700D+01  0.100000D+01
   d     1 1.00
  0.318000D+00  0.100000D+01
   f     1 1.00
  0.761000D+00  0.100000D+01
  
  4  0
   s    10 1.00
  0.823600D+04  0.531000D-03
  0.123500D+04  0.410800D-02
  0.280800D+03  0.210870D-01
  0.792700D+02  0.818530D-01
  0.255900D+02  0.234817D+00
  0.899700D+01  0.434401D+00
  0.331900D+01  0.346129D+00
  0.905900D+00  0.393780D-01
  0.364300D+00 -0.898300D-02
  0.128500D+00  0.238500D-02
   s    10 1.00
  0.823600D+04 -0.113000D-03
  0.123500D+04 -0.878000D-03
  0.280800D+03 -0.454000D-02
  0.792700D+02 -0.181330D-01
  0.255900D+02 -0.557600D-01
  0.899700D+01 -0.126895D+00
  0.331900D+01 -0.170352D+00
  0.905900D+00  0.140382D+00
  0.364300D+00  0.598684D+00
  0.128500D+00  0.395389D+00
   s     1 1.00
  0.905900D+00  0.100000D+01
   s     1 1.00
  0.364300D+00  0.100000D+01
   p     5 1.00
  0.187100D+02  0.140310D-01
  0.413300D+01  0.868660D-01
  0.120000D+01  0.290216D+00
  0.382700D+00  0.501008D+00
  0.120900D+00  0.343406D+00
   p     1 1.00
  0.382700D+00  0.100000D+01
   p     1 1.00
  0.120900D+00  0.100000D+01
   d     1 1.00
  0.109700D+01  0.100000D+01
   d     1 1.00
  0.318000D+00  0.100000D+01
   f     1 1.00
  0.761000D+00  0.100000D+01
  
  5  0
   s    10 1.00
  0.823600D+04  0.531000D-03
  0.123500D+04  0.410800D-02
  0.280800D+03  0.210870D-01
  0.792700D+02  0.818530D-01
  0.255900D+02  0.234817D+00
  0.899700D+01  0.434401D+00
  0.331900D+01  0.346129D+00
  0.905900D+00  0.393780D-01
  0.364300D+00 -0.898300D-02
  0.128500D+00  0.238500D-02
   s    10 1.00
  0.823600D+04 -0.113000D-03
  0.123500D+04 -0.878000D-03
  0.280800D+03 -0.454000D-02
  0.792700D+02 -0.181330D-01
  0.255900D+02 -0.557600D-01
  0.899700D+01 -0.126895D+00
  0.331900D+01 -0.170352D+00
  0.905900D+00  0.140382D+00
  0.364300D+00  0.598684D+00
  0.128500D+00  0.395389D+00
   s     1 1.00
  0.905900D+00  0.100000D+01
   s     1 1.00
  0.364300D+00  0.100000D+01
   p     5 1.00
  0.187100D+02  0.140310D-01
  0.413300D+01  0.868660D-01
  0.120000D+01  0.290216D+00
  0.382700D+00  0.501008D+00
  0.120900D+00  0.343406D+00
   p     1 1.00
  0.382700D+00  0.100000D+01
   p     1 1.00
  0.120900D+00  0.100000D+01
   d     1 1.00
  0.109700D+01  0.100000D+01
   d     1 1.00
  0.318000D+00  0.100000D+01
   f     1 1.00
  0.761000D+00  0.100000D+01
  
  6  0
   s    10 1.00
  0.823600D+04  0.531000D-03
  0.123500D+04  0.410800D-02
  0.280800D+03  0.210870D-01
  0.792700D+02  0.818530D-01
  0.255900D+02  0.234817D+00
  0.899700D+01  0.434401D+00
  0.331900D+01  0.346129D+00
  0.905900D+00  0.393780D-01
  0.364300D+00 -0.898300D-02
  0.128500D+00  0.238500D-02
   s    10 1.00
  0.823600D+04 -0.113000D-03
  0.123500D+04 -0.878000D-03
  0.280800D+03 -0.454000D-02
  0.792700D+02 -0.181330D-01
  0.255900D+02 -0.557600D-01
  0.899700D+01 -0.126895D+00
  0.331900D+01 -0.170352D+00
  0.905900D+00  0.140382D+00
  0.364300D+00  0.598684D+00
  0.128500D+00  0.395389D+00
   s     1 1.00
  0.905900D+00  0.100000D+01
   s     1 1.00
  0.364300D+00  0.100000D+01
   p     5 1.00
  0.187100D+02  0.140310D-01
  0.413300D+01  0.868660D-01
  0.120000D+01  0.290216D+00
  0.382700D+00  0.501008D+00
  0.120900D+00  0.343406D+00
   p     1 1.00
  0.382700D+00  0.100000D+01
   p     1 1.00
  0.120900D+00  0.100000D+01
   d     1 1.00
  0.109700D+01  0.100000D+01
   d     1 1.00
  0.318000D+00  0.100000D+01
   f     1 1.00
  0.761000D+00  0.100000D+01
  
  7  0
   s    10 1.00
  0.823600D+04  0.531000D-03
  0.123500D+04  0.410800D-02
  0.280800D+03  0.210870D-01
  0.792700D+02  0.818530D-01
  0.255900D+02  0.234817D+00
  0.899700D+01  0.434401D+00
  0.331900D+01  0.346129D+00
  0.905900D+00  0.393780D-01
  0.364300D+00 -0.898300D-02
  0.128500D+00  0.238500D-02
   s    10 1.00
  0.823600D+04 -0.113000D-03
  0.123500D+04 -0.878000D-03
  0.280800D+03 -0.454000D-02
  0.792700D+02 -0.181330D-01
  0.255900D+02 -0.557600D-01
  0.899700D+01 -0.126895D+00
  0.331900D+01 -0.170352D+00
  0.905900D+00  0.140382D+00
  0.364300D+00  0.598684D+00
  0.128500D+00  0.395389D+00
   s     1 1.00
  0.905900D+00  0.100000D+01
   s     1 1.00
  0.364300D+00  0.100000D+01
   p     5 1.00
  0.187100D+02  0.140310D-01
  0.413300D+01  0.868660D-01
  0.120000D+01  0.290216D+00
  0.382700D+00  0.501008D+00
  0.120900D+00  0.343406D+00
   p     1 1.00
  0.382700D+00  0.100000D+01
   p     1 1.00
  0.120900D+00  0.100000D+01
   d     1 1.00
  0.109700D+01  0.100000D+01
   d     1 1.00
  0.318000D+00  0.100000D+01
   f     1 1.00
  0.761000D+00  0.100000D+01
  
  8  0
   s     4 1.00
  0.130100D+02  0.196850D-01
  0.196200D+01  0.137977D+00
  0.444600D+00  0.478148D+00
  0.122000D+00  0.501240D+00
   s     1 1.00
  0.122000D+00  0.100000D+01
   p     1 1.00
  0.727000D+00  0.100000D+01
  
  9  0
   s     4 1.00
  0.130100D+02  0.196850D-01
  0.196200D+01  0.137977D+00
  0.444600D+00  0.478148D+00
  0.122000D+00  0.501240D+00
   s     1 1.00
  0.122000D+00  0.100000D+01
   p     1 1.00
  0.727000D+00  0.100000D+01
  
 10  0
   s     4 1.00
  0.130100D+02  0.196850D-01
  0.196200D+01  0.137977D+00
  0.444600D+00  0.478148D+00
  0.122000D+00  0.501240D+00
   s     1 1.00
  0.122000D+00  0.100000D+01
   p     1 1.00
  0.727000D+00  0.100000D+01
  
 11  0
   s     4 1.00
  0.130100D+02  0.196850D-01
  0.196200D+01  0.137977D+00
  0.444600D+00  0.478148D+00
  0.122000D+00  0.501240D+00
   s     1 1.00
  0.122000D+00  0.100000D+01
   p     1 1.00
  0.727000D+00  0.100000D+01
  
 12  0
   s     4 1.00
  0.130100D+02  0.196850D-01
  0.196200D+01  0.137977D+00
  0.444600D+00  0.478148D+00
  0.122000D+00  0.501240D+00
   s     1 1.00
  0.122000D+00  0.100000D+01
   p     1 1.00
  0.727000D+00  0.100000D+01
  
 13  0
   s     4 1.00
  0.130100D+02  0.196850D-01
  0.196200D+01  0.137977D+00
  0.444600D+00  0.478148D+00
  0.122000D+00  0.501240D+00
   s     1 1.00
  0.122000D+00  0.100000D+01
   p     1 1.00
  0.727000D+00  0.100000D+01
  
 14  0
   s     4 1.00
  0.130100D+02  0.196850D-01
  0.196200D+01  0.137977D+00
  0.444600D+00  0.478148D+00
  0.122000D+00  0.501240D+00
   s     1 1.00
  0.122000D+00  0.100000D+01
   p     1 1.00
  0.727000D+00  0.100000D+01
  
[MO]
 Sym= __1_A__
 Ene=   1.00000000000000     
 Spin= Alpha
 Occup=    1.00000000000000     
                     1 -1.438994321637933E-004
                     2  0.998508977149653     
                     3 -2.184907838944066E-002
                     4  1.203055129439092E-003
                     5  6.443407087861854E-003
                     6  1.131188676433180E-002
                     7 -9.787782035995825E-004
                     8  1.539918165593497E-002
                     9 -1.607112736191998E-003
                    10  6.681143617174829E-005
                    11 -1.415748585420299E-003
                    12 -3.999257750817291E-003
                    13  1.190964520613510E-004
                    14 -5.051325196395631E-003
                    15  8.106819320365786E-005
                    16  8.941533901515559E-006
                    17 -3.018557369915021E-005
                    18  7.746476603729581E-005
                    19  5.274237624458698E-006
                    20  2.066026921563206E-004
                    21  7.393260803240287E-004
                    22 -3.501216240469719E-005
                    23  2.321486608434140E-004
                    24 -1.461437419597743E-005
                    25  5.204511645539961E-005
                    26 -4.962223103104443E-005
                    27  9.505115416805168E-006
                    28  3.411929574722486E-005
                    29  1.266044143473284E-005
                    30 -2.185400499448648E-005
                    31  5.286936802103864E-006
                    32 -3.195863949783226E-004
                    33  4.780445871406804E-004
                    34  3.101276963207239E-004
                    35 -4.731319741616679E-007
                    36  5.967997286617932E-004
                    37  4.708064639398137E-004
                    38 -1.627633802411095E-003
                    39 -3.468073386927048E-004
                    40 -1.340238094852306E-004
                    41  9.943757614154095E-004
                    42  4.721934920014889E-003
                    43  3.245856064039573E-004
                    44 -2.332125364357232E-003
                    45  6.462723442262216E-006
                    46 -1.787218549742394E-004
                    47 -1.020373900117083E-005
                    48 -4.663480828497824E-007
                    49  1.778664094530659E-005
                    50  2.632479909822907E-004
                    51  5.693884799894566E-004
                    52  2.648436971878704E-007
                    53 -1.810272323217933E-004
                    54 -3.932641908681387E-005
                    55  7.693895446408673E-005
                    56 -1.958268743022625E-005
                    57  1.084946153856880E-005
                    58  8.112871330438702E-005
                    59  1.028303087460255E-006
                    60 -6.090472030100214E-005
                    61 -8.442288493655148E-006
                    62 -9.184494796377916E-004
                    63 -8.998336681905213E-004
                    64 -1.733878457225127E-004
                    65  3.383462297231067E-003
                    66 -2.883700819312920E-003
                    67 -4.603326051650911E-006
                    68  1.030347941061756E-003
                    69  8.558813189576112E-004
                    70 -5.578958513476982E-005
                    71  7.536798818245042E-004
                    72  1.531365452980016E-003
                    73  3.257474688809367E-004
                    74 -2.284958782315273E-003
                    75  6.925592785269451E-005
                    76 -9.520396031755126E-005
                    77 -2.005449177568233E-005
                    78  5.077062102552204E-005
                    79  1.348163513735173E-005
                    80  3.632720277110719E-004
                    81 -2.136401821715787E-004
                    82 -7.405351562022339E-005
                    83  1.693178977024968E-005
                    84  2.114843103319935E-005
                    85 -2.880243333283930E-005
                    86 -1.927996011428457E-004
                    87 -1.858709501364612E-005
                    88  2.239651413079346E-005
                    89  2.419755214682985E-005
                    90 -7.584269489430294E-005
                    91  5.073125874401484E-006
                    92 -2.192463961787123E-005
                    93 -4.615615952781402E-004
                    94  3.109668358063209E-004
                    95 -1.120786923593956E-003
                    96 -2.456243222532519E-004
                    97  3.237245649747409E-005
                    98  9.366008137675262E-004
                    99  1.745288992512222E-004
                   100 -6.573935283700507E-005
                   101  3.929720567339623E-004
                   102 -2.076841422948761E-003
                   103 -5.613771663272289E-005
                   104  3.615581413473432E-004
                   105 -2.162317798422794E-005
                   106 -3.363002089910611E-005
                   107 -1.077520159319087E-006
                   108  2.469652745187568E-005
                   109  5.158237007930411E-006
                   110 -1.882200577625925E-004
                   111  1.371107164841409E-004
                   112  5.153425905672599E-005
                   113 -1.098676971118731E-004
                   114 -2.742044811865376E-005
                   115 -2.651795339232941E-005
                   116  3.919093641629972E-005
                   117 -7.519030449660865E-006
                   118 -1.869104005402524E-007
                   119 -7.413921509249456E-006
                   120  5.301220869949368E-007
                   121  1.681049617713256E-006
                   122 -3.427179203807143E-004
                   123 -1.869612419673245E-003
                   124  1.706538807146737E-004
                   125  8.081474020525122E-004
                   126  1.272748210416476E-003
                   127  1.216580042487744E-004
                   128 -1.810682194454825E-004
                   129  5.334191206495957E-004
                   130 -3.154193501124590E-005
                   131  3.890989733894499E-004
                   132  2.025270289196769E-003
                   133 -1.627813534999329E-005
                   134  5.871793442703582E-004
                   135  6.978889135547904E-005
                   136 -2.790526246691687E-005
                   137 -9.130837901443852E-006
                   138 -5.759275106709752E-005
                   139 -4.002459577887047E-006
                   140  2.570747317165754E-004
                   141  2.097105085441507E-004
                   142  3.589287697805136E-006
                   143 -4.322526610883676E-004
                   144 -5.953826391801549E-005
                   145 -2.010590589897624E-005
                   146 -4.774124609137139E-005
                   147 -8.845214239001836E-006
                   148  5.785261222449366E-006
                   149 -6.102255694974790E-006
                   150 -1.031088172684395E-004
                   151  9.678078529344216E-006
                   152 -1.840600744004938E-004
                   153 -5.601920613576587E-004
                   154 -4.969781749366355E-005
                   155  7.083178663955295E-004
                   156  3.016460328318494E-004
                   157  4.485857968486568E-006
                   158 -2.222858246735321E-005
                   159 -2.368184055548395E-004
                   160 -1.145623547636110E-005
                   161  7.667215065466631E-005
                   162 -6.544666677524480E-004
                   163 -1.563425167244675E-004
                   164  8.521032815654059E-004
                   165 -8.871914511895921E-006
                   166 -1.092900375784182E-005
                   167 -1.791648036825533E-007
                   168  1.738015123492721E-005
                   169 -2.461361454607368E-006
                   170 -3.083460587558845E-005
                   171  6.507144366025636E-005
                   172  1.555934557783267E-005
                   173 -4.327405774494408E-005
                   174 -1.236106585981269E-005
                   175 -8.327522789305495E-006
                   176 -1.059248067071353E-005
                   177 -1.595575353639282E-006
                   178 -1.047782827650589E-005
                   179  2.016663177222803E-006
                   180  7.723707648561230E-007
                   181  2.579825656322684E-006
                   182 -1.583862875892429E-004
                   183 -3.634989064511593E-004
                   184  3.942502044998895E-005
                   185  2.679366717836091E-004
                   186 -1.960800059626453E-004
                   187 -5.623580092055441E-005
                   188 -3.525048862571799E-005
                   189  1.578542481389298E-004
                   190 -4.470125455414165E-005
                   191  3.916726469192745E-004
                   192 -5.489872102788168E-004
                   193 -2.155601324333954E-004
                   194  1.582492991690802E-003
                   195  2.053363834777766E-005
                   196 -4.341554758096652E-006
                   197 -4.597560599618732E-006
                   198 -1.262286351512027E-005
                   199 -4.347490796098426E-007
                   200 -8.297280804208114E-005
                   201 -2.920517632475228E-004
                   202  4.694397308100428E-006
                   203  2.824946140126590E-005
                   204  3.425440614739461E-005
                   205  1.810739165080918E-006
                   206  7.800444281678943E-006
                   207 -3.427682719740985E-006
                   208  1.778203739505942E-005
                   209 -9.454406544432046E-007
                   210 -5.504842197915483E-006
                   211 -1.903282360548436E-006
                   212 -8.916619378951610E-004
                   213  9.579186430553286E-004
                   214  8.369604386450134E-005
                   215 -5.263174793773227E-005
                   216  1.771906352173076E-005
                   217 -1.267712336572529E-003
                   218  9.590825684790285E-004
                   219  9.730121606879385E-005
                   220  1.689717721576395E-005
                   221  2.912657586743894E-005
                   222  7.399552009242444E-004
                   223 -1.323332420125222E-003
                   224 -6.982909882995229E-005
                   225 -1.225830754599007E-005
                   226  1.186698499545192E-004
                   227  8.034413798872569E-004
                   228 -8.074780708698869E-004
                   229 -1.496293150788636E-006
                   230  1.308318683375758E-005
                   231 -1.021299393463141E-004
                   232  7.454427640332804E-004
                   233 -5.030882416495829E-004
                   234 -7.024441101240864E-006
                   235 -4.551540900447233E-006
                   236  4.562807418512421E-005
                   237 -4.209872520062324E-005
                   238 -4.223157642398476E-004
                   239 -4.243130730377987E-006
                   240 -9.531629857888424E-007
                   241  6.646725657974364E-006
                   242 -3.069778530771372E-004
                   243  2.006596149917403E-004
                   244  4.150405607282759E-005
                   245 -5.530980401505470E-007
                   246 -6.121358619880263E-007
 Sym= __2_A__
 Ene=   2.00000000000000     
 Spin= Alpha
 Occup=    1.00000000000000     
                     1 -2.147686864143569E-005
                     2 -1.298218333791048E-004
                     3  6.560140309014707E-004
                     4 -7.378909315262284E-006
                     5  9.444076560088231E-004
                     6  1.691999129197988E-003
                     7 -6.816911230491337E-005
                     8  6.411045501757760E-004
                     9 -1.340004923742493E-004
                    10 -1.195939615003175E-006
                    11 -6.966289733128072E-005
                    12  1.226270802821994E-004
                    13  2.056674757948331E-005
                    14 -1.220045262659756E-004
                    15 -5.016472692659407E-005
                    16  2.929992359702732E-005
                    17  3.705625725000696E-006
                    18  5.690168243966618E-005
                    19 -4.150172252977393E-007
                    20  2.221601058386163E-005
                    21 -5.292631010167918E-005
                    22 -1.622100006905093E-005
                    23  1.159514709973335E-004
                    24  1.579189553114751E-005
                    25 -2.447341572744411E-005
                    26  1.208190006866438E-004
                    27  9.828369262139576E-006
                    28 -5.846637550469678E-005
                    29 -1.200053936524268E-005
                    30  9.775545230620460E-005
                    31 -1.114231239698431E-006
                    32   1.00077967060009     
                    33  8.660783799568115E-003
                    34  2.836026978557317E-003
                    35 -8.439033665717740E-003
                    36 -1.462790568854013E-003
                    37 -9.929017974534531E-005
                    38  1.110471514429863E-005
                    39  5.072421532130654E-004
                    40  9.312810003852375E-005
                    41 -3.182043459537675E-004
                    42  2.551755557020766E-003
                    43  5.308444716264144E-005
                    44  3.280252235327226E-004
                    45  3.069084435771483E-004
                    46  4.415992812330265E-006
                    47 -1.029165300894406E-004
                    48  3.271692005562570E-004
                    49  1.616873890472945E-005
                    50 -1.018992732801939E-003
                    51 -3.341902776440353E-004
                    52  2.146325620688481E-004
                    53 -9.639689607647404E-005
                    54  3.571012063012350E-005
                    55 -3.155513326632304E-005
                    56  2.556097209310280E-004
                    57  5.903086604857427E-006
                    58 -3.140992940863616E-005
                    59 -3.751946425081102E-005
                    60  8.067607131135039E-005
                    61 -1.655321533595473E-006
                    62  1.877774506858557E-002
                    63 -1.513605640792870E-003
                    64 -2.860785671258990E-004
                    65  2.794116564253814E-003
                    66 -2.365392645968886E-004
                    67 -4.465008771487938E-005
                    68  3.598323454021969E-004
                    69  5.587942095613162E-006
                    70 -4.425562539355550E-005
                    71  3.476429733490494E-004
                    72  2.095728818558337E-004
                    73  2.170107973651738E-004
                    74 -1.766725680225156E-003
                    75  7.138606289774846E-006
                    76  2.081299031092747E-005
                    77  4.176557731929011E-006
                    78 -4.214996960269608E-005
                    79 -4.642184386573611E-006
                    80 -5.318451228199636E-004
                    81 -3.573844163148673E-004
                    82  5.622018616568121E-007
                    83  8.007052956204698E-004
                    84  9.071392132366708E-005
                    85  3.509070657392641E-005
                    86  1.122971670167620E-004
                    87  1.920959220930162E-005
                    88 -2.828436341821188E-005
                    89 -2.655701391804761E-005
                    90 -2.630247442675199E-005
                    91  6.560390878809773E-006
                    92  1.922342547367499E-002
                    93 -1.776322524110940E-003
                    94 -3.324633125380049E-004
                    95  3.373540511883947E-003
                    96 -1.769958436994829E-004
                    97  3.079002015889847E-005
                    98 -2.807049202301190E-004
                    99 -1.112272751953974E-004
                   100  9.112804078539004E-005
                   101 -8.187364801611297E-004
                   102  2.650809961647686E-004
                   103 -1.704009048623425E-004
                   104  1.491160998977866E-003
                   105  1.779078538266458E-006
                   106 -2.602159781444639E-007
                   107  2.224520131815378E-006
                   108 -1.997480193528698E-005
                   109 -8.613990971332035E-007
                   110 -1.436228631886722E-004
                   111  4.997480922715478E-004
                   112 -2.485295965253953E-005
                   113  6.063268709712762E-004
                   114 -2.307747358046337E-005
                   115 -4.258660108467756E-005
                   116  8.833426377064894E-005
                   117 -1.482157451823850E-005
                   118  1.851170852554887E-005
                   119 -2.085967125262971E-005
                   120 -2.914125147985303E-005
                   121 -4.495722639540476E-007
                   122  5.279191422626263E-005
                   123 -6.843503409724162E-004
                   124  2.403537758084338E-004
                   125 -3.888398368328731E-004
                   126 -1.466505494214401E-004
                   127  2.618110956894202E-006
                   128 -4.617999697937379E-005
                   129  6.297118753183700E-004
                   130  1.308349805912466E-005
                   131  4.678953799670531E-005
                   132  3.790110664046450E-004
                   133 -3.744954593376713E-005
                   134  4.101659878294541E-004
                   135  1.145706446324467E-006
                   136  3.644614135528396E-005
                   137  5.192049444182691E-006
                   138 -3.746894393851228E-005
                   139 -6.727161181512838E-006
                   140  1.834413783646168E-004
                   141 -2.658582105469119E-004
                   142 -1.851487286795111E-005
                   143 -2.215433606496852E-004
                   144  1.855509149245242E-005
                   145 -1.146205778781226E-005
                   146  1.435863069168607E-005
                   147 -2.026468225562838E-006
                   148 -4.769664206515794E-006
                   149 -6.136840110581651E-006
                   150 -2.040407019073089E-005
                   151  2.680507997109845E-006
                   152  1.117948713575985E-004
                   153 -7.244594459793416E-004
                   154  2.274736183012311E-004
                   155 -1.249884028695797E-004
                   156 -1.645342263817895E-004
                   157 -9.703560255119221E-006
                   158  2.694972082030885E-005
                   159  4.847518553867059E-004
                   160  1.321148510798847E-005