[Molden Format]
[Atoms] AU
  N     1    7    -4.5082829200   -0.1342819900   -0.4228200100        
  C     2    6    -1.7496705200   -0.0824342700   -0.1838819400        
  C     3    6    -0.3491890900    0.2202010900   -2.3813599000        
  C     4    6    -0.4819141000   -0.3194027500    2.1144844200        
  C     5    6     2.2679837200    0.2851297300   -2.2867536700        
  C     6    6     2.1285900100   -0.2535069600    2.1993448600        
  C     7    6     3.5096699900    0.0491470500   -0.0030301700        
  H     8    1    -5.2360393300   -2.3263659700    0.8673061800        
  H     9    1    -5.2915135300    1.5208285600    1.2149402000        
  H    10    1    -1.3260875200    0.4019365300   -4.1451509600        
  H    11    1    -1.5448115400   -0.5543420500    3.8263524900        
  H    12    1     3.3318141500    0.5199799700   -3.9976458500        
  H    13    1     3.0845146800   -0.4378414600    3.9798216900        
  H    14    1     5.5368142800    0.0998677000    0.0666404700        
[5D]
[7F]
[GTO]
  1  0
   s    12 1.00
  0.114200D+05  0.172695D-04
  0.171200D+04  0.134411D-03
  0.389300D+03  0.694561D-03
  0.110000D+03  0.278531D-02
  0.355700D+02  0.863457D-02
  0.125400D+02  0.199805D-01
  0.464400D+01  0.262908D-01
  0.129300D+01 -0.243845D-01
  0.511800D+00 -0.924934D-01
  0.178700D+00 -0.339683D+00
  0.246240D-01  0.345111D+00
  0.112530D-01  0.752750D+00
   s    10 1.00
  0.114200D+05  0.523000D-03
  0.171200D+04  0.404500D-02
  0.389300D+03  0.207750D-01
  0.110000D+03  0.807269D-01
  0.355700D+02  0.233074D+00
  0.125400D+02  0.433501D+00
  0.464400D+01  0.347472D+00
  0.129300D+01  0.412620D-01
  0.511800D+00 -0.850799D-02
  0.178700D+00  0.238400D-02
   s    10 1.00
  0.114200D+05 -0.115000D-03
  0.171200D+04 -0.895000D-03
  0.389300D+03 -0.462400D-02
  0.110000D+03 -0.185280D-01
  0.355700D+02 -0.573390D-01
  0.125400D+02 -0.132076D+00
  0.464400D+01 -0.172510D+00
  0.129300D+01  0.151814D+00
  0.511800D+00  0.599944D+00
  0.178700D+00  0.387462D+00
   s     1 1.00
  0.129300D+01  0.100000D+01
   s     1 1.00
  0.178700D+00  0.100000D+01
   p     5 1.00
  0.266300D+02  0.146700D-01
  0.594800D+01  0.917640D-01
  0.174200D+01  0.298683D+00
  0.555000D+00  0.498487D+00
  0.172500D+00  0.337023D+00
   p     1 1.00
  0.174200D+01  0.100000D+01
   p     1 1.00
  0.555000D+00  0.100000D+01
   d     1 1.00
  0.165400D+01  0.100000D+01
   d     1 1.00
  0.469000D+00  0.100000D+01
   f     1 1.00
  0.109300D+01  0.100000D+01
  
  2  0
   s    10 1.00
  0.823600D+04  0.531000D-03
  0.123500D+04  0.410800D-02
  0.280800D+03  0.210870D-01
  0.792700D+02  0.818530D-01
  0.255900D+02  0.234817D+00
  0.899700D+01  0.434401D+00
  0.331900D+01  0.346129D+00
  0.905900D+00  0.393780D-01
  0.364300D+00 -0.898300D-02
  0.128500D+00  0.238500D-02
   s    10 1.00
  0.823600D+04 -0.113000D-03
  0.123500D+04 -0.878000D-03
  0.280800D+03 -0.454000D-02
  0.792700D+02 -0.181330D-01
  0.255900D+02 -0.557600D-01
  0.899700D+01 -0.126895D+00
  0.331900D+01 -0.170352D+00
  0.905900D+00  0.140382D+00
  0.364300D+00  0.598684D+00
  0.128500D+00  0.395389D+00
   s     1 1.00
  0.905900D+00  0.100000D+01
   s     1 1.00
  0.364300D+00  0.100000D+01
   p     5 1.00
  0.187100D+02  0.140310D-01
  0.413300D+01  0.868660D-01
  0.120000D+01  0.290216D+00
  0.382700D+00  0.501008D+00
  0.120900D+00  0.343406D+00
   p     1 1.00
  0.382700D+00  0.100000D+01
   p     1 1.00
  0.120900D+00  0.100000D+01
   d     1 1.00
  0.109700D+01  0.100000D+01
   d     1 1.00
  0.318000D+00  0.100000D+01
   f     1 1.00
  0.761000D+00  0.100000D+01
  
  3  0
   s    10 1.00
  0.823600D+04  0.531000D-03
  0.123500D+04  0.410800D-02
  0.280800D+03  0.210870D-01
  0.792700D+02  0.818530D-01
  0.255900D+02  0.234817D+00
  0.899700D+01  0.434401D+00
  0.331900D+01  0.346129D+00
  0.905900D+00  0.393780D-01
  0.364300D+00 -0.898300D-02
  0.128500D+00  0.238500D-02
   s    10 1.00
  0.823600D+04 -0.113000D-03
  0.123500D+04 -0.878000D-03
  0.280800D+03 -0.454000D-02
  0.792700D+02 -0.181330D-01
  0.255900D+02 -0.557600D-01
  0.899700D+01 -0.126895D+00
  0.331900D+01 -0.170352D+00
  0.905900D+00  0.140382D+00
  0.364300D+00  0.598684D+00
  0.128500D+00  0.395389D+00
   s     1 1.00
  0.905900D+00  0.100000D+01
   s     1 1.00
  0.364300D+00  0.100000D+01
   p     5 1.00
  0.187100D+02  0.140310D-01
  0.413300D+01  0.868660D-01
  0.120000D+01  0.290216D+00
  0.382700D+00  0.501008D+00
  0.120900D+00  0.343406D+00
   p     1 1.00
  0.382700D+00  0.100000D+01
   p     1 1.00
  0.120900D+00  0.100000D+01
   d     1 1.00
  0.109700D+01  0.100000D+01
   d     1 1.00
  0.318000D+00  0.100000D+01
   f     1 1.00
  0.761000D+00  0.100000D+01
  
  4  0
   s    10 1.00
  0.823600D+04  0.531000D-03
  0.123500D+04  0.410800D-02
  0.280800D+03  0.210870D-01
  0.792700D+02  0.818530D-01
  0.255900D+02  0.234817D+00
  0.899700D+01  0.434401D+00
  0.331900D+01  0.346129D+00
  0.905900D+00  0.393780D-01
  0.364300D+00 -0.898300D-02
  0.128500D+00  0.238500D-02
   s    10 1.00
  0.823600D+04 -0.113000D-03
  0.123500D+04 -0.878000D-03
  0.280800D+03 -0.454000D-02
  0.792700D+02 -0.181330D-01
  0.255900D+02 -0.557600D-01
  0.899700D+01 -0.126895D+00
  0.331900D+01 -0.170352D+00
  0.905900D+00  0.140382D+00
  0.364300D+00  0.598684D+00
  0.128500D+00  0.395389D+00
   s     1 1.00
  0.905900D+00  0.100000D+01
   s     1 1.00
  0.364300D+00  0.100000D+01
   p     5 1.00
  0.187100D+02  0.140310D-01
  0.413300D+01  0.868660D-01
  0.120000D+01  0.290216D+00
  0.382700D+00  0.501008D+00
  0.120900D+00  0.343406D+00
   p     1 1.00
  0.382700D+00  0.100000D+01
   p     1 1.00
  0.120900D+00  0.100000D+01
   d     1 1.00
  0.109700D+01  0.100000D+01
   d     1 1.00
  0.318000D+00  0.100000D+01
   f     1 1.00
  0.761000D+00  0.100000D+01
  
  5  0
   s    10 1.00
  0.823600D+04  0.531000D-03
  0.123500D+04  0.410800D-02
  0.280800D+03  0.210870D-01
  0.792700D+02  0.818530D-01
  0.255900D+02  0.234817D+00
  0.899700D+01  0.434401D+00
  0.331900D+01  0.346129D+00
  0.905900D+00  0.393780D-01
  0.364300D+00 -0.898300D-02
  0.128500D+00  0.238500D-02
   s    10 1.00
  0.823600D+04 -0.113000D-03
  0.123500D+04 -0.878000D-03
  0.280800D+03 -0.454000D-02
  0.792700D+02 -0.181330D-01
  0.255900D+02 -0.557600D-01
  0.899700D+01 -0.126895D+00
  0.331900D+01 -0.170352D+00
  0.905900D+00  0.140382D+00
  0.364300D+00  0.598684D+00
  0.128500D+00  0.395389D+00
   s     1 1.00
  0.905900D+00  0.100000D+01
   s     1 1.00
  0.364300D+00  0.100000D+01
   p     5 1.00
  0.187100D+02  0.140310D-01
  0.413300D+01  0.868660D-01
  0.120000D+01  0.290216D+00
  0.382700D+00  0.501008D+00
  0.120900D+00  0.343406D+00
   p     1 1.00
  0.382700D+00  0.100000D+01
   p     1 1.00
  0.120900D+00  0.100000D+01
   d     1 1.00
  0.109700D+01  0.100000D+01
   d     1 1.00
  0.318000D+00  0.100000D+01
   f     1 1.00
  0.761000D+00  0.100000D+01
  
  6  0
   s    10 1.00
  0.823600D+04  0.531000D-03
  0.123500D+04  0.410800D-02
  0.280800D+03  0.210870D-01
  0.792700D+02  0.818530D-01
  0.255900D+02  0.234817D+00
  0.899700D+01  0.434401D+00
  0.331900D+01  0.346129D+00
  0.905900D+00  0.393780D-01
  0.364300D+00 -0.898300D-02
  0.128500D+00  0.238500D-02
   s    10 1.00
  0.823600D+04 -0.113000D-03
  0.123500D+04 -0.878000D-03
  0.280800D+03 -0.454000D-02
  0.792700D+02 -0.181330D-01
  0.255900D+02 -0.557600D-01
  0.899700D+01 -0.126895D+00
  0.331900D+01 -0.170352D+00
  0.905900D+00  0.140382D+00
  0.364300D+00  0.598684D+00
  0.128500D+00  0.395389D+00
   s     1 1.00
  0.905900D+00  0.100000D+01
   s     1 1.00
  0.364300D+00  0.100000D+01
   p     5 1.00
  0.187100D+02  0.140310D-01
  0.413300D+01  0.868660D-01
  0.120000D+01  0.290216D+00
  0.382700D+00  0.501008D+00
  0.120900D+00  0.343406D+00
   p     1 1.00
  0.382700D+00  0.100000D+01
   p     1 1.00
  0.120900D+00  0.100000D+01
   d     1 1.00
  0.109700D+01  0.100000D+01
   d     1 1.00
  0.318000D+00  0.100000D+01
   f     1 1.00
  0.761000D+00  0.100000D+01
  
  7  0
   s    10 1.00
  0.823600D+04  0.531000D-03
  0.123500D+04  0.410800D-02
  0.280800D+03  0.210870D-01
  0.792700D+02  0.818530D-01
  0.255900D+02  0.234817D+00
  0.899700D+01  0.434401D+00
  0.331900D+01  0.346129D+00
  0.905900D+00  0.393780D-01
  0.364300D+00 -0.898300D-02
  0.128500D+00  0.238500D-02
   s    10 1.00
  0.823600D+04 -0.113000D-03
  0.123500D+04 -0.878000D-03
  0.280800D+03 -0.454000D-02
  0.792700D+02 -0.181330D-01
  0.255900D+02 -0.557600D-01
  0.899700D+01 -0.126895D+00
  0.331900D+01 -0.170352D+00
  0.905900D+00  0.140382D+00
  0.364300D+00  0.598684D+00
  0.128500D+00  0.395389D+00
   s     1 1.00
  0.905900D+00  0.100000D+01
   s     1 1.00
  0.364300D+00  0.100000D+01
   p     5 1.00
  0.187100D+02  0.140310D-01
  0.413300D+01  0.868660D-01
  0.120000D+01  0.290216D+00
  0.382700D+00  0.501008D+00
  0.120900D+00  0.343406D+00
   p     1 1.00
  0.382700D+00  0.100000D+01
   p     1 1.00
  0.120900D+00  0.100000D+01
   d     1 1.00
  0.109700D+01  0.100000D+01
   d     1 1.00
  0.318000D+00  0.100000D+01
   f     1 1.00
  0.761000D+00  0.100000D+01
  
  8  0
   s     4 1.00
  0.130100D+02  0.196850D-01
  0.196200D+01  0.137977D+00
  0.444600D+00  0.478148D+00
  0.122000D+00  0.501240D+00
   s     1 1.00
  0.122000D+00  0.100000D+01
   p     1 1.00
  0.727000D+00  0.100000D+01
  
  9  0
   s     4 1.00
  0.130100D+02  0.196850D-01
  0.196200D+01  0.137977D+00
  0.444600D+00  0.478148D+00
  0.122000D+00  0.501240D+00
   s     1 1.00
  0.122000D+00  0.100000D+01
   p     1 1.00
  0.727000D+00  0.100000D+01
  
 10  0
   s     4 1.00
  0.130100D+02  0.196850D-01
  0.196200D+01  0.137977D+00
  0.444600D+00  0.478148D+00
  0.122000D+00  0.501240D+00
   s     1 1.00
  0.122000D+00  0.100000D+01
   p     1 1.00
  0.727000D+00  0.100000D+01
  
 11  0
   s     4 1.00
  0.130100D+02  0.196850D-01
  0.196200D+01  0.137977D+00
  0.444600D+00  0.478148D+00
  0.122000D+00  0.501240D+00
   s     1 1.00
  0.122000D+00  0.100000D+01
   p     1 1.00
  0.727000D+00  0.100000D+01
  
 12  0
   s     4 1.00
  0.130100D+02  0.196850D-01
  0.196200D+01  0.137977D+00
  0.444600D+00  0.478148D+00
  0.122000D+00  0.501240D+00
   s     1 1.00
  0.122000D+00  0.100000D+01
   p     1 1.00
  0.727000D+00  0.100000D+01
  
 13  0
   s     4 1.00
  0.130100D+02  0.196850D-01
  0.196200D+01  0.137977D+00
  0.444600D+00  0.478148D+00
  0.122000D+00  0.501240D+00
   s     1 1.00
  0.122000D+00  0.100000D+01
   p     1 1.00
  0.727000D+00  0.100000D+01
  
 14  0
   s     4 1.00
  0.130100D+02  0.196850D-01
  0.196200D+01  0.137977D+00
  0.444600D+00  0.478148D+00
  0.122000D+00  0.501240D+00
   s     1 1.00
  0.122000D+00  0.100000D+01
   p     1 1.00
  0.727000D+00  0.100000D+01
  
[MO]
 Sym= __1_a__
 Ene=  0.000000000000000E+000
 Spin= Alpha
 Occup=    2.00000000000000     
                     1 -1.438994321637930E-004
                     2  0.998508977149653     
                     3 -2.184907838944070E-002
                     4  1.203055129439090E-003
                     5  6.443407087861850E-003
                     6  1.131188676433180E-002
                     7 -9.787782035995830E-004
                     8  1.539918165593500E-002
                     9 -1.607112736192000E-003
                    10  6.681143617174830E-005
                    11 -1.415748585420300E-003
                    12 -3.999257750817290E-003
                    13  1.190964520613510E-004
                    14 -5.051325196395630E-003
                    15  8.106819320365775E-005
                    16  8.941533901515559E-006
                    17 -3.018557369915020E-005
                    18  7.746476603729580E-005
                    19  5.274237624458700E-006
                    20  2.066026921563204E-004
                    21  7.393260803240290E-004
                    22 -3.501216240469720E-005
                    23  2.321486608434140E-004
                    24 -1.461437419597740E-005
                    25  5.204511645539954E-005
                    26 -4.962223103104445E-005
                    27  9.505115416805156E-006
                    28  3.411929574722480E-005
                    29  1.266044143473280E-005
                    30 -2.185400499448641E-005
                    31  5.286936802103850E-006
                    32 -3.195863949783230E-004
                    33  4.780445871406800E-004
                    34  3.101276963207240E-004
                    35 -4.731319741616680E-007
                    36  5.967997286617930E-004
                    37  4.708064639398140E-004
                    38 -1.627633802411090E-003
                    39 -3.468073386927050E-004
                    40 -1.340238094852310E-004
                    41  9.943757614154091E-004
                    42  4.721934920014890E-003
                    43  3.245856064039570E-004
                    44 -2.332125364357230E-003
                    45  6.462723442262223E-006
                    46 -1.787218549742390E-004
                    47 -1.020373900117080E-005
                    48 -4.663480828497820E-007
                    49  1.778664094530660E-005
                    50  2.632479909822908E-004
                    51  5.693884799894570E-004
                    52  2.648436971878700E-007
                    53 -1.810272323217932E-004
                    54 -3.932641908681390E-005
                    55  7.693895446408680E-005
                    56 -1.958268743022625E-005
                    57  1.084946153856881E-005
                    58  8.112871330438701E-005
                    59  1.028303087460260E-006
                    60 -6.090472030100217E-005
                    61 -8.442288493655158E-006
                    62 -9.184494796377921E-004
                    63 -8.998336681905210E-004
                    64 -1.733878457225130E-004
                    65  3.383462297231070E-003
                    66 -2.883700819312920E-003
                    67 -4.603326051650910E-006
                    68  1.030347941061760E-003
                    69  8.558813189576110E-004
                    70 -5.578958513476980E-005
                    71  7.536798818245040E-004
                    72  1.531365452980020E-003
                    73  3.257474688809370E-004
                    74 -2.284958782315270E-003
                    75  6.925592785269436E-005
                    76 -9.520396031755130E-005
                    77 -2.005449177568230E-005
                    78  5.077062102552200E-005
                    79  1.348163513735170E-005
                    80  3.632720277110709E-004
                    81 -2.136401821715790E-004
                    82 -7.405351562022340E-005
                    83  1.693178977024968E-005
                    84  2.114843103319930E-005
                    85 -2.880243333283930E-005
                    86 -1.927996011428454E-004
                    87 -1.858709501364612E-005
                    88  2.239651413079340E-005
                    89  2.419755214682990E-005
                    90 -7.584269489430297E-005
                    91  5.073125874401493E-006
                    92 -2.192463961787120E-005
                    93 -4.615615952781400E-004
                    94  3.109668358063210E-004
                    95 -1.120786923593960E-003
                    96 -2.456243222532520E-004
                    97  3.237245649747410E-005
                    98  9.366008137675260E-004
                    99  1.745288992512220E-004
                   100 -6.573935283700510E-005
                   101  3.929720567339620E-004
                   102 -2.076841422948760E-003
                   103 -5.613771663272290E-005
                   104  3.615581413473430E-004
                   105 -2.162317798422795E-005
                   106 -3.363002089910610E-005
                   107 -1.077520159319090E-006
                   108  2.469652745187560E-005
                   109  5.158237007930410E-006
                   110 -1.882200577625927E-004
                   111  1.371107164841410E-004
                   112  5.153425905672600E-005
                   113 -1.098676971118732E-004
                   114 -2.742044811865380E-005
                   115 -2.651795339232934E-005
                   116  3.919093641629972E-005
                   117 -7.519030449660878E-006
                   118 -1.869104005402524E-007
                   119 -7.413921509249460E-006
                   120  5.301220869949363E-007
                   121  1.681049617713258E-006
                   122 -3.427179203807140E-004
                   123 -1.869612419673250E-003
                   124  1.706538807146740E-004
                   125  8.081474020525120E-004
                   126  1.272748210416480E-003
                   127  1.216580042487740E-004
                   128 -1.810682194454830E-004
                   129  5.334191206495960E-004
                   130 -3.154193501124590E-005
                   131  3.890989733894500E-004
                   132  2.025270289196770E-003
                   133 -1.627813534999330E-005
                   134  5.871793442703579E-004
                   135  6.978889135547908E-005
                   136 -2.790526246691690E-005
                   137 -9.130837901443850E-006
                   138 -5.759275106709760E-005
                   139 -4.002459577887050E-006
                   140  2.570747317165753E-004
                   141  2.097105085441510E-004
                   142  3.589287697805140E-006
                   143 -4.322526610883680E-004
                   144 -5.953826391801550E-005
                   145 -2.010590589897626E-005
                   146 -4.774124609137141E-005
                   147 -8.845214239001848E-006
                   148  5.785261222449360E-006
                   149 -6.102255694974790E-006
                   150 -1.031088172684395E-004
                   151  9.678078529344231E-006
                   152 -1.840600744004940E-004
                   153 -5.601920613576590E-004
                   154 -4.969781749366360E-005
                   155  7.083178663955299E-004
                   156  3.016460328318490E-004
                   157  4.485857968486570E-006
                   158 -2.222858246735320E-005
                   159 -2.368184055548390E-004
                   160 -1.145623547636110E-005
                   161  7.667215065466630E-005
                   162 -6.544666677524480E-004
                   163 -1.563425167244680E-004
                   164  8.521032815654060E-004
                   165 -8.871914511895924E-006
                   166 -1.092900375784180E-005
                   167 -1.791648036825530E-007
                   168  1.738015123492722E-005
                   169 -2.461361454607370E-006
                   170 -3.083460587558847E-005
                   171  6.507144366025640E-005
                   172  1.555934557783270E-005
                   173 -4.327405774494400E-005
                   174 -1.236106585981270E-005
                   175 -8.327522789305490E-006
                   176 -1.059248067071354E-005
                   177 -1.595575353639281E-006
                   178 -1.047782827650590E-005
                   179  2.016663177222800E-006
                   180  7.723707648561234E-007
                   181  2.579825656322686E-006
                   182 -1.583862875892430E-004
                   183 -3.634989064511590E-004
                   184  3.942502044998890E-005
                   185  2.679366717836090E-004
                   186 -1.960800059626450E-004
                   187 -5.623580092055440E-005
                   188 -3.525048862571800E-005
                   189  1.578542481389300E-004
                   190 -4.470125455414170E-005
                   191  3.916726469192750E-004
                   192 -5.489872102788169E-004
                   193 -2.155601324333950E-004
                   194  1.582492991690800E-003
                   195  2.053363834777767E-005
                   196 -4.341554758096650E-006
                   197 -4.597560599618730E-006
                   198 -1.262286351512028E-005
                   199 -4.347490796098430E-007
                   200 -8.297280804208096E-005
                   201 -2.920517632475230E-004
                   202  4.694397308100430E-006
                   203  2.824946140126580E-005
                   204  3.425440614739460E-005
                   205  1.810739165080919E-006
                   206  7.800444281678973E-006
                   207 -3.427682719740988E-006
                   208  1.778203739505942E-005
                   209 -9.454406544432050E-007
                   210 -5.504842197915476E-006
                   211 -1.903282360548439E-006
                   212 -8.916619378951610E-004
                   213  9.579186430553290E-004
                   214  8.369604386450130E-005
                   215 -5.263174793773230E-005
                   216  1.771906352173080E-005
                   217 -1.267712336572530E-003
                   218  9.590825684790279E-004
                   219  9.730121606879381E-005
                   220  1.689717721576390E-005
                   221  2.912657586743890E-005
                   222  7.399552009242440E-004
                   223 -1.323332420125220E-003
                   224 -6.982909882995230E-005
                   225 -1.225830754599010E-005
                   226  1.186698499545190E-004
                   227  8.034413798872570E-004
                   228 -8.074780708698870E-004
                   229 -1.496293150788640E-006
                   230  1.308318683375760E-005
                   231 -1.021299393463140E-004
                   232  7.454427640332800E-004
                   233 -5.030882416495830E-004
                   234 -7.024441101240860E-006
                   235 -4.551540900447230E-006
                   236  4.562807418512420E-005
                   237 -4.209872520062320E-005
                   238 -4.223157642398480E-004
                   239 -4.243130730377990E-006
                   240 -9.531629857888420E-007
                   241  6.646725657974360E-006
                   242 -3.069778530771370E-004
                   243  2.006596149917400E-004
                   244  4.150405607282760E-005
                   245 -5.530980401505470E-007
                   246 -6.121358619880260E-007
 Sym= __2_a__
 Ene=  0.000000000000000E+000
 Spin= Alpha
 Occup=    2.00000000000000     
                     1 -2.147686864143570E-005
                     2 -1.298218333791050E-004
                     3  6.560140309014710E-004
                     4 -7.378909315262280E-006
                     5  9.444076560088230E-004
                     6  1.691999129197990E-003
                     7 -6.816911230491341E-005
                     8  6.411045501757760E-004
                     9 -1.340004923742490E-004
                    10 -1.195939615003170E-006
                    11 -6.966289733128070E-005
                    12  1.226270802821990E-004
                    13  2.056674757948330E-005
                    14 -1.220045262659760E-004
                    15 -5.016472692659414E-005
                    16  2.929992359702730E-005
                    17  3.705625725000700E-006
                    18  5.690168243966620E-005
                    19 -4.150172252977390E-007
                    20  2.221601058386161E-005
                    21 -5.292631010167920E-005
                    22 -1.622100006905090E-005
                    23  1.159514709973334E-004
                    24  1.579189553114750E-005
                    25 -2.447341572744411E-005
                    26  1.208190006866439E-004
                    27  9.828369262139588E-006
                    28 -5.846637550469680E-005
                    29 -1.200053936524270E-005
                    30  9.775545230620464E-005
                    31 -1.114231239698433E-006
                    32   1.00077967060009     
                    33  8.660783799568110E-003
                    34  2.836026978557320E-003
                    35 -8.439033665717740E-003
                    36 -1.462790568854010E-003
                    37 -9.929017974534530E-005
                    38  1.110471514429860E-005
                    39  5.072421532130650E-004
                    40  9.312810003852370E-005
                    41 -3.182043459537680E-004
                    42  2.551755557020770E-003
                    43  5.308444716264140E-005
                    44  3.280252235327230E-004
                    45  3.069084435771482E-004
                    46  4.415992812330270E-006
                    47 -1.029165300894410E-004
                    48  3.271692005562580E-004
                    49  1.616873890472950E-005
                    50 -1.018992732801939E-003
                    51 -3.341902776440350E-004
                    52  2.146325620688480E-004
                    53 -9.639689607647400E-005
                    54  3.571012063012350E-005
                    55 -3.155513326632309E-005
                    56  2.556097209310281E-004
                    57  5.903086604857431E-006
                    58 -3.140992940863620E-005
                    59 -3.751946425081100E-005
                    60  8.067607131135032E-005
                    61 -1.655321533595473E-006
                    62  1.877774506858560E-002
                    63 -1.513605640792870E-003
                    64 -2.860785671258990E-004
                    65  2.794116564253810E-003
                    66 -2.365392645968890E-004
                    67 -4.465008771487940E-005
                    68  3.598323454021970E-004
                    69  5.587942095613160E-006
                    70 -4.425562539355550E-005
                    71  3.476429733490490E-004
                    72  2.095728818558340E-004
                    73  2.170107973651740E-004
                    74 -1.766725680225160E-003
                    75  7.138606289774839E-006
                    76  2.081299031092750E-005
                    77  4.176557731929010E-006
                    78 -4.214996960269600E-005
                    79 -4.642184386573610E-006
                    80 -5.318451228199644E-004
                    81 -3.573844163148670E-004
                    82  5.622018616568120E-007
                    83  8.007052956204700E-004
                    84  9.071392132366709E-005
                    85  3.509070657392638E-005
                    86  1.122971670167620E-004
                    87  1.920959220930160E-005
                    88 -2.828436341821180E-005
                    89 -2.655701391804760E-005
                    90 -2.630247442675205E-005
                    91  6.560390878809798E-006
                    92  1.922342547367500E-002
                    93 -1.776322524110940E-003
                    94 -3.324633125380050E-004
                    95  3.373540511883950E-003
                    96 -1.769958436994830E-004
                    97  3.079002015889850E-005
                    98 -2.807049202301190E-004
                    99 -1.112272751953970E-004
                   100  9.112804078539000E-005
                   101 -8.187364801611300E-004
                   102  2.650809961647690E-004
                   103 -1.704009048623420E-004
                   104  1.491160998977870E-003
                   105  1.779078538266459E-006
                   106 -2.602159781444640E-007
                   107  2.224520131815380E-006
                   108 -1.997480193528698E-005
                   109 -8.613990971332029E-007
                   110 -1.436228631886724E-004
                   111  4.997480922715480E-004
                   112 -2.485295965253950E-005
                   113  6.063268709712760E-004
                   114 -2.307747358046340E-005
                   115 -4.258660108467758E-005
                   116  8.833426377064888E-005
                   117 -1.482157451823852E-005
                   118  1.851170852554886E-005
                   119 -2.085967125262970E-005
                   120 -2.914125147985307E-005
                   121 -4.495722639540477E-007
                   122  5.279191422626260E-005
                   123 -6.843503409724160E-004
                   124  2.403537758084340E-004
                   125 -3.888398368328730E-004
                   126 -1.466505494214400E-004
                   127  2.618110956894200E-006
                   128 -4.617999697937380E-005
                   129  6.297118753183700E-004
                   130  1.308349805912470E-005
                   131  4.678953799670530E-005
                   132  3.790110664046450E-004
                   133 -3.744954593376710E-005
                   134  4.101659878294540E-004
                   135  1.145706446324466E-006
                   136  3.644614135528400E-005
                   137  5.192049444182690E-006
                   138 -3.746894393851220E-005
                   139 -6.727161181512840E-006
                   140  1.834413783646169E-004
                   141 -2.658582105469120E-004
                   142 -1.851487286795110E-005
                   143 -2.215433606496860E-004
                   144  1.855509149245240E-005
                   145 -1.146205778781226E-005
                   146  1.435863069168610E-005
                   147 -2.026468225562838E-006
                   148 -4.769664206515800E-006
                   149 -6.136840110581650E-006
                   150 -2.040407019073085E-005
                   151  2.680507997109845E-006
                   152  1.117948713575980E-004
                   153 -7.244594459793420E-004
                   154  2.274736183012310E-004
                   155 -1.249884028695800E-004
                   156 -1.645342263817890E-004
                   157 -9.703560255119221E-006
                   158  2.694972082030880E-005
                   159  4.847518553867060E-004
                   160  1.321148510798850E-005