[Molden Format]
[Atoms] AU
  N     1    7     0.0039820000   -0.0001300200   -4.3068599600        
  C     2    6     0.0022904300   -0.0008570400   -1.7712645500        
  C     3    6     0.0508956200   -2.3362320300   -0.4126997000        
  C     4    6    -0.0481282300    2.3337385000   -0.4114267500        
  C     5    6     0.0792894800   -2.2993382400    2.1659613900        
  C     6    6    -0.0799626000    2.2953659400    2.1671725800        
  C     7    6    -0.0012084600   -0.0023609000    3.4735422400        
  H     8    1    -0.7598582300   -1.4733812000   -5.3227712300        
  H     9    1     0.7691764700    1.4737032300   -5.3209061300        
  H    10    1     0.1238532400   -4.0680434000   -1.4498750800        
  H    11    1    -0.1197026200    4.0661443800   -1.4477052500        
  H    12    1     0.1668411500   -4.0391922200    3.1986356400        
  H    13    1    -0.1688927000    4.0346274700    3.2007266600        
  H    14    1    -0.0025607400   -0.0029421300    5.5006075100        
[5D]
[7F]
[GTO]
  1  0
   s    12 1.00
  0.114200D+05  0.172695D-04
  0.171200D+04  0.134411D-03
  0.389300D+03  0.694561D-03
  0.110000D+03  0.278531D-02
  0.355700D+02  0.863457D-02
  0.125400D+02  0.199805D-01
  0.464400D+01  0.262908D-01
  0.129300D+01 -0.243845D-01
  0.511800D+00 -0.924934D-01
  0.178700D+00 -0.339683D+00
  0.246240D-01  0.345111D+00
  0.112530D-01  0.752750D+00
   s    10 1.00
  0.114200D+05  0.523000D-03
  0.171200D+04  0.404500D-02
  0.389300D+03  0.207750D-01
  0.110000D+03  0.807269D-01
  0.355700D+02  0.233074D+00
  0.125400D+02  0.433501D+00
  0.464400D+01  0.347472D+00
  0.129300D+01  0.412620D-01
  0.511800D+00 -0.850799D-02
  0.178700D+00  0.238400D-02
   s    10 1.00
  0.114200D+05 -0.115000D-03
  0.171200D+04 -0.895000D-03
  0.389300D+03 -0.462400D-02
  0.110000D+03 -0.185280D-01
  0.355700D+02 -0.573390D-01
  0.125400D+02 -0.132076D+00
  0.464400D+01 -0.172510D+00
  0.129300D+01  0.151814D+00
  0.511800D+00  0.599944D+00
  0.178700D+00  0.387462D+00
   s     1 1.00
  0.129300D+01  0.100000D+01
   s     1 1.00
  0.178700D+00  0.100000D+01
   p     5 1.00
  0.266300D+02  0.146700D-01
  0.594800D+01  0.917640D-01
  0.174200D+01  0.298683D+00
  0.555000D+00  0.498487D+00
  0.172500D+00  0.337023D+00
   p     1 1.00
  0.174200D+01  0.100000D+01
   p     1 1.00
  0.555000D+00  0.100000D+01
   d     1 1.00
  0.165400D+01  0.100000D+01
   d     1 1.00
  0.469000D+00  0.100000D+01
   f     1 1.00
  0.109300D+01  0.100000D+01
  
  2  0
   s    10 1.00
  0.823600D+04  0.531000D-03
  0.123500D+04  0.410800D-02
  0.280800D+03  0.210870D-01
  0.792700D+02  0.818530D-01
  0.255900D+02  0.234817D+00
  0.899700D+01  0.434401D+00
  0.331900D+01  0.346129D+00
  0.905900D+00  0.393780D-01
  0.364300D+00 -0.898300D-02
  0.128500D+00  0.238500D-02
   s    10 1.00
  0.823600D+04 -0.113000D-03
  0.123500D+04 -0.878000D-03
  0.280800D+03 -0.454000D-02
  0.792700D+02 -0.181330D-01
  0.255900D+02 -0.557600D-01
  0.899700D+01 -0.126895D+00
  0.331900D+01 -0.170352D+00
  0.905900D+00  0.140382D+00
  0.364300D+00  0.598684D+00
  0.128500D+00  0.395389D+00
   s     1 1.00
  0.905900D+00  0.100000D+01
   s     1 1.00
  0.364300D+00  0.100000D+01
   p     5 1.00
  0.187100D+02  0.140310D-01
  0.413300D+01  0.868660D-01
  0.120000D+01  0.290216D+00
  0.382700D+00  0.501008D+00
  0.120900D+00  0.343406D+00
   p     1 1.00
  0.382700D+00  0.100000D+01
   p     1 1.00
  0.120900D+00  0.100000D+01
   d     1 1.00
  0.109700D+01  0.100000D+01
   d     1 1.00
  0.318000D+00  0.100000D+01
   f     1 1.00
  0.761000D+00  0.100000D+01
  
  3  0
   s    10 1.00
  0.823600D+04  0.531000D-03
  0.123500D+04  0.410800D-02
  0.280800D+03  0.210870D-01
  0.792700D+02  0.818530D-01
  0.255900D+02  0.234817D+00
  0.899700D+01  0.434401D+00
  0.331900D+01  0.346129D+00
  0.905900D+00  0.393780D-01
  0.364300D+00 -0.898300D-02
  0.128500D+00  0.238500D-02
   s    10 1.00
  0.823600D+04 -0.113000D-03
  0.123500D+04 -0.878000D-03
  0.280800D+03 -0.454000D-02
  0.792700D+02 -0.181330D-01
  0.255900D+02 -0.557600D-01
  0.899700D+01 -0.126895D+00
  0.331900D+01 -0.170352D+00
  0.905900D+00  0.140382D+00
  0.364300D+00  0.598684D+00
  0.128500D+00  0.395389D+00
   s     1 1.00
  0.905900D+00  0.100000D+01
   s     1 1.00
  0.364300D+00  0.100000D+01
   p     5 1.00
  0.187100D+02  0.140310D-01
  0.413300D+01  0.868660D-01
  0.120000D+01  0.290216D+00
  0.382700D+00  0.501008D+00
  0.120900D+00  0.343406D+00
   p     1 1.00
  0.382700D+00  0.100000D+01
   p     1 1.00
  0.120900D+00  0.100000D+01
   d     1 1.00
  0.109700D+01  0.100000D+01
   d     1 1.00
  0.318000D+00  0.100000D+01
   f     1 1.00
  0.761000D+00  0.100000D+01
  
  4  0
   s    10 1.00
  0.823600D+04  0.531000D-03
  0.123500D+04  0.410800D-02
  0.280800D+03  0.210870D-01
  0.792700D+02  0.818530D-01
  0.255900D+02  0.234817D+00
  0.899700D+01  0.434401D+00
  0.331900D+01  0.346129D+00
  0.905900D+00  0.393780D-01
  0.364300D+00 -0.898300D-02
  0.128500D+00  0.238500D-02
   s    10 1.00
  0.823600D+04 -0.113000D-03
  0.123500D+04 -0.878000D-03
  0.280800D+03 -0.454000D-02
  0.792700D+02 -0.181330D-01
  0.255900D+02 -0.557600D-01
  0.899700D+01 -0.126895D+00
  0.331900D+01 -0.170352D+00
  0.905900D+00  0.140382D+00
  0.364300D+00  0.598684D+00
  0.128500D+00  0.395389D+00
   s     1 1.00
  0.905900D+00  0.100000D+01
   s     1 1.00
  0.364300D+00  0.100000D+01
   p     5 1.00
  0.187100D+02  0.140310D-01
  0.413300D+01  0.868660D-01
  0.120000D+01  0.290216D+00
  0.382700D+00  0.501008D+00
  0.120900D+00  0.343406D+00
   p     1 1.00
  0.382700D+00  0.100000D+01
   p     1 1.00
  0.120900D+00  0.100000D+01
   d     1 1.00
  0.109700D+01  0.100000D+01
   d     1 1.00
  0.318000D+00  0.100000D+01
   f     1 1.00
  0.761000D+00  0.100000D+01
  
  5  0
   s    10 1.00
  0.823600D+04  0.531000D-03
  0.123500D+04  0.410800D-02
  0.280800D+03  0.210870D-01
  0.792700D+02  0.818530D-01
  0.255900D+02  0.234817D+00
  0.899700D+01  0.434401D+00
  0.331900D+01  0.346129D+00
  0.905900D+00  0.393780D-01
  0.364300D+00 -0.898300D-02
  0.128500D+00  0.238500D-02
   s    10 1.00
  0.823600D+04 -0.113000D-03
  0.123500D+04 -0.878000D-03
  0.280800D+03 -0.454000D-02
  0.792700D+02 -0.181330D-01
  0.255900D+02 -0.557600D-01
  0.899700D+01 -0.126895D+00
  0.331900D+01 -0.170352D+00
  0.905900D+00  0.140382D+00
  0.364300D+00  0.598684D+00
  0.128500D+00  0.395389D+00
   s     1 1.00
  0.905900D+00  0.100000D+01
   s     1 1.00
  0.364300D+00  0.100000D+01
   p     5 1.00
  0.187100D+02  0.140310D-01
  0.413300D+01  0.868660D-01
  0.120000D+01  0.290216D+00
  0.382700D+00  0.501008D+00
  0.120900D+00  0.343406D+00
   p     1 1.00
  0.382700D+00  0.100000D+01
   p     1 1.00
  0.120900D+00  0.100000D+01
   d     1 1.00
  0.109700D+01  0.100000D+01
   d     1 1.00
  0.318000D+00  0.100000D+01
   f     1 1.00
  0.761000D+00  0.100000D+01
  
  6  0
   s    10 1.00
  0.823600D+04  0.531000D-03
  0.123500D+04  0.410800D-02
  0.280800D+03  0.210870D-01
  0.792700D+02  0.818530D-01
  0.255900D+02  0.234817D+00
  0.899700D+01  0.434401D+00
  0.331900D+01  0.346129D+00
  0.905900D+00  0.393780D-01
  0.364300D+00 -0.898300D-02
  0.128500D+00  0.238500D-02
   s    10 1.00
  0.823600D+04 -0.113000D-03
  0.123500D+04 -0.878000D-03
  0.280800D+03 -0.454000D-02
  0.792700D+02 -0.181330D-01
  0.255900D+02 -0.557600D-01
  0.899700D+01 -0.126895D+00
  0.331900D+01 -0.170352D+00
  0.905900D+00  0.140382D+00
  0.364300D+00  0.598684D+00
  0.128500D+00  0.395389D+00
   s     1 1.00
  0.905900D+00  0.100000D+01
   s     1 1.00
  0.364300D+00  0.100000D+01
   p     5 1.00
  0.187100D+02  0.140310D-01
  0.413300D+01  0.868660D-01
  0.120000D+01  0.290216D+00
  0.382700D+00  0.501008D+00
  0.120900D+00  0.343406D+00
   p     1 1.00
  0.382700D+00  0.100000D+01
   p     1 1.00
  0.120900D+00  0.100000D+01
   d     1 1.00
  0.109700D+01  0.100000D+01
   d     1 1.00
  0.318000D+00  0.100000D+01
   f     1 1.00
  0.761000D+00  0.100000D+01
  
  7  0
   s    10 1.00
  0.823600D+04  0.531000D-03
  0.123500D+04  0.410800D-02
  0.280800D+03  0.210870D-01
  0.792700D+02  0.818530D-01
  0.255900D+02  0.234817D+00
  0.899700D+01  0.434401D+00
  0.331900D+01  0.346129D+00
  0.905900D+00  0.393780D-01
  0.364300D+00 -0.898300D-02
  0.128500D+00  0.238500D-02
   s    10 1.00
  0.823600D+04 -0.113000D-03
  0.123500D+04 -0.878000D-03
  0.280800D+03 -0.454000D-02
  0.792700D+02 -0.181330D-01
  0.255900D+02 -0.557600D-01
  0.899700D+01 -0.126895D+00
  0.331900D+01 -0.170352D+00
  0.905900D+00  0.140382D+00
  0.364300D+00  0.598684D+00
  0.128500D+00  0.395389D+00
   s     1 1.00
  0.905900D+00  0.100000D+01
   s     1 1.00
  0.364300D+00  0.100000D+01
   p     5 1.00
  0.187100D+02  0.140310D-01
  0.413300D+01  0.868660D-01
  0.120000D+01  0.290216D+00
  0.382700D+00  0.501008D+00
  0.120900D+00  0.343406D+00
   p     1 1.00
  0.382700D+00  0.100000D+01
   p     1 1.00
  0.120900D+00  0.100000D+01
   d     1 1.00
  0.109700D+01  0.100000D+01
   d     1 1.00
  0.318000D+00  0.100000D+01
   f     1 1.00
  0.761000D+00  0.100000D+01
  
  8  0
   s     4 1.00
  0.130100D+02  0.196850D-01
  0.196200D+01  0.137977D+00
  0.444600D+00  0.478148D+00
  0.122000D+00  0.501240D+00
   s     1 1.00
  0.122000D+00  0.100000D+01
   p     1 1.00
  0.727000D+00  0.100000D+01
  
  9  0
   s     4 1.00
  0.130100D+02  0.196850D-01
  0.196200D+01  0.137977D+00
  0.444600D+00  0.478148D+00
  0.122000D+00  0.501240D+00
   s     1 1.00
  0.122000D+00  0.100000D+01
   p     1 1.00
  0.727000D+00  0.100000D+01
  
 10  0
   s     4 1.00
  0.130100D+02  0.196850D-01
  0.196200D+01  0.137977D+00
  0.444600D+00  0.478148D+00
  0.122000D+00  0.501240D+00
   s     1 1.00
  0.122000D+00  0.100000D+01
   p     1 1.00
  0.727000D+00  0.100000D+01
  
 11  0
   s     4 1.00
  0.130100D+02  0.196850D-01
  0.196200D+01  0.137977D+00
  0.444600D+00  0.478148D+00
  0.122000D+00  0.501240D+00
   s     1 1.00
  0.122000D+00  0.100000D+01
   p     1 1.00
  0.727000D+00  0.100000D+01
  
 12  0
   s     4 1.00
  0.130100D+02  0.196850D-01
  0.196200D+01  0.137977D+00
  0.444600D+00  0.478148D+00
  0.122000D+00  0.501240D+00
   s     1 1.00
  0.122000D+00  0.100000D+01
   p     1 1.00
  0.727000D+00  0.100000D+01
  
 13  0
   s     4 1.00
  0.130100D+02  0.196850D-01
  0.196200D+01  0.137977D+00
  0.444600D+00  0.478148D+00
  0.122000D+00  0.501240D+00
   s     1 1.00
  0.122000D+00  0.100000D+01
   p     1 1.00
  0.727000D+00  0.100000D+01
  
 14  0
   s     4 1.00
  0.130100D+02  0.196850D-01
  0.196200D+01  0.137977D+00
  0.444600D+00  0.478148D+00
  0.122000D+00  0.501240D+00
   s     1 1.00
  0.122000D+00  0.100000D+01
   p     1 1.00
  0.727000D+00  0.100000D+01
  
[MO]
 Sym= __1_a__
 Ene=  0.000000000000000E+000
 Spin= Alpha
 Occup=    2.00000000000000     
                     1  4.422510556925140E-005
                     2  0.998029816882575     
                     3  9.101116901063281E-003
                     4  2.079550510319590E-003
                     5  1.624352104615240E-003
                     6 -2.933812077090860E-006
                     7 -1.272966725294910E-006
                     8  4.406006155907020E-003
                     9  9.961178967169890E-008
                    10  5.417493207047480E-008
                    11 -1.537142021846650E-004
                    12  1.551162152946170E-007
                    13  3.685718535397550E-008
                    14 -2.364830941885640E-004
                    15  2.427441419416944E-004
                    16 -3.087789500938550E-007
                    17 -5.180676671172920E-008
                    18 -7.370162335307080E-005
                    19  7.072040123185190E-005
                    20  1.349620252180184E-004
                    21 -4.413096655655670E-008
                    22 -4.615144651334980E-007
                    23  3.472274618252660E-004
                    24 -4.045728836114460E-004
                    25 -1.850533789005025E-004
                    26 -2.523688187986637E-007
                    27 -2.073212995731663E-007
                    28  6.679105829584040E-005
                    29 -4.497053740862480E-005
                    30  7.090335307627366E-008
                    31  1.210381982243214E-008
                    32 -3.121433119346920E-004
                    33  2.737647722377880E-003
                    34  1.448151048905330E-004
                    35 -3.448053637004390E-004
                    36  4.584291935402720E-006
                    37  1.990528917536030E-006
                    38 -6.878759037043010E-003
                    39 -1.551658419129100E-007
                    40 -1.197409279554580E-007
                    41  2.412386177802310E-004
                    42 -2.892500730601210E-006
                    43 -1.198801348219750E-006
                    44  4.327122739821910E-003
                    45  3.462913439534956E-004
                    46 -3.202478725712810E-007
                    47 -2.063437917813250E-007
                    48  1.248357704029398E-004
                    49 -1.228857703276790E-005
                    50  2.101018664699132E-004
                    51 -4.165380702950790E-007
                    52 -9.152953020917370E-008
                    53 -3.032218749546460E-004
                    54  1.006471037906420E-004
                    55 -1.020460491179021E-004
                    56 -1.038499079315596E-007
                    57 -1.252209490932935E-007
                    58  6.741989903433220E-005
                    59 -1.946892746015490E-005
                    60  6.181637869277070E-008
                    61 -1.149520070701729E-008
                    62 -2.075771616544000E-004
                    63 -1.657028365862500E-003
                    64  3.879286319966270E-005
                    65  6.423296607154250E-004
                    66 -2.239285202901130E-005
                    67 -8.387132229385040E-004
                    68  1.012150516130590E-003
                    69  4.950480523838630E-005
                    70  5.325953689891730E-006
                    71  5.028772535711620E-004
                    72  3.073320722442760E-005
                    73 -6.330517017685480E-004
                    74 -1.791391705877720E-004
                    75  8.957263955123248E-005
                    76  2.472516183671830E-006
                    77 -1.038814469859210E-005
                    78  3.696505726124200E-005
                    79 -3.493335466729280E-007
                    80  1.018725752118524E-005
                    81 -3.232148926133990E-005
                    82  1.473385599142460E-004
                    83 -1.374473869071042E-005
                    84  2.936798659046370E-005
                    85 -8.928550298483305E-005
                    86  3.863397339129936E-006
                    87 -2.211816619886951E-005
                    88  2.136801825050480E-005
                    89 -6.755484449138150E-006
                    90  1.847397288042776E-006
                    91  1.584685873266087E-005
                    92 -2.075409018605250E-004
                    93 -1.656882714214620E-003
                    94  3.895801526863370E-005
                    95  6.417871882909760E-004
                    96  2.104000436721470E-005
                    97  8.381518232085280E-004
                    98  1.012768705472720E-003
                    99 -5.016719443885050E-005
                   100 -5.753953243908760E-006
                   101  5.021800440158120E-004
                   102 -3.047081278434470E-005
                   103  6.325805150159870E-004
                   104 -1.786565743745930E-004
                   105  8.954444830492363E-005
                   106 -2.629981450347510E-006
                   107  1.029444381351600E-005
                   108  3.697637750635700E-005
                   109 -3.617814848513620E-007
                   110  9.675313633371098E-006
                   111  3.230424431880690E-005
                   112 -1.474085992527710E-004
                   113 -1.396130169925630E-005
                   114  2.954332339068780E-005
                   115 -8.923600623722251E-005
                   116 -4.115282316379439E-006
                   117  2.196105944424090E-005
                   118  2.138391185389320E-005
                   119 -6.826089409613550E-006
                   120 -1.808037054718225E-006
                   121 -1.584996038445753E-005
                   122 -1.514836234947570E-004
                   123 -1.420063374208510E-005
                   124  1.048646850474880E-004
                   125  1.538374626519010E-004
                   126 -2.960327663133930E-005
                   127  4.130932583921070E-005
                   128 -7.789396698910090E-004
                   129  4.584542294169760E-007
                   130  2.407717920599990E-005
                   131  3.205968969434500E-004
                   132  1.693902769079670E-005
                   133 -1.300721483826110E-004
                   134  6.834235423674030E-004
                   135 -1.453172246722457E-005
                   136  1.954740163191700E-006
                   137  2.468831711270310E-006
                   138  4.953684860899840E-007
                   139  1.542354647007900E-006
                   140 -1.782985273282829E-004
                   141 -1.698452355209850E-005
                   142  1.495653397893530E-004
                   143  1.790733488754110E-005
                   144 -8.748214219386540E-006
                   145 -3.618965791256946E-005
                   146  2.848013757585788E-007
                   147 -1.781809643869956E-007
                   148 -8.793266795557799E-006
                   149 -1.418922447320280E-006
                   150 -7.392797337017958E-007
                   151 -3.147230732034963E-006
                   152 -1.519585432469240E-004
                   153 -1.587919885418910E-005
                   154  1.043847075139970E-004
                   155  1.568608303113330E-004
                   156  3.063431650120500E-005
                   157 -4.080592530319960E-005
                   158 -7.788923103940180E-004
                   159 -8.584516014377410E-007
                   160 -2.461952811594640E-005
                   161  3.202283772526930E-004
                   162 -1.787603204804050E-005
                   163  1.302266440422060E-004
                   164  6.836462414872550E-004
                   165 -1.448465654337720E-005
                   166 -1.921038482219750E-006
                   167 -2.460562295451350E-006
                   168  4.447131680085060E-007
                   169  1.542354363725800E-006
                   170 -1.782741874082449E-004
                   171  1.741741352248590E-005
                   172 -1.496678863982580E-004
                   173  1.775278998341888E-005
                   174 -8.558328104047549E-006
                   175 -3.610144556245090E-005
                   176 -4.203167455176941E-007
                   177  1.397507583878567E-007
                   178 -8.842714960457180E-006
                   179 -1.416941394894430E-006
                   180  7.259984246909356E-007
                   181  3.165250145361842E-006
                   182 -1.269275869684100E-004
                   183 -3.414192878403200E-004
                   184  3.072646354286960E-005
                   185  1.758303186095700E-004
                   186  2.279633816326560E-008
                   187  9.961805441981500E-008
                   188 -4.406242759441230E-005
                   189  9.121153645149250E-009
                   190 -4.401732389352820E-007
                   191  1.686249215006240E-005
                   192 -8.143922713930091E-009
                   193 -4.552255829813700E-008
                   194  1.779752034839690E-005
                   195  1.857277049468658E-005
                   196 -1.683798201259130E-008
                   197  1.299863377131800E-008
                   198  8.235931336704160E-006
                   199  7.582841573269150E-007
                   200  5.375446604082549E-005
                   201 -4.251224083849430E-008
                   202  1.691912053686520E-007
                   203  4.202571576106080E-005
                   204 -5.888275235936270E-006
                   205 -1.166289360862271E-005
                   206 -1.422808694461507E-008
                   207 -1.561498546401708E-008
                   208  3.321265433081520E-006
                   209  1.864107381768440E-006
                   210  4.891088881990088E-009
                   211  2.460215195434815E-008
                   212  3.888540312455580E-003
                   213 -2.333551223062430E-003
                   214  2.310876064880160E-004
                   215  4.095868330373620E-004
                   216  3.686411199028400E-004
                   217  3.888514807154360E-003
                   218 -2.333540654262940E-003
                   219 -2.315782421794130E-004
                   220 -4.097966619252190E-004
                   221  3.680988866571550E-004
                   222 -6.346446271812110E-004
                   223 -1.854774163276380E-004
                   224  2.260010950123090E-006
                   225 -2.192063412079190E-005
                   226 -4.275091243418190E-005
                   227 -6.347132060359580E-004
                   228 -1.851046299799980E-004
                   229 -2.202892791009890E-006
                   230  2.192706031393090E-005
                   231 -4.276784198034080E-005
                   232 -2.307658896566400E-004
                   233 -3.745178770935590E-004
                   234 -2.336363667495220E-006
                   235 -7.173959548519120E-006
                   236  4.235371713445390E-006
                   237 -2.308055356008530E-004
                   238 -3.746782860648780E-004
                   239  2.328052763745250E-006
                   240  7.217595409486960E-006
                   241  4.289856652035300E-006
                   242  6.923816877129820E-005
                   243 -1.031533044187710E-004
                   244 -9.889721381905930E-009
                   245 -2.556451285627590E-008
                   246  1.496069048678380E-005
 Sym= __2_a__
 Ene=  0.000000000000000E+000
 Spin= Alpha
 Occup=    2.00000000000000     
                     1 -3.815374882646500E-005
                     2 -1.825014073911230E-004
                     3  2.205136019847930E-003
                     4  9.041640714796440E-005
                     5  1.258624805952360E-003
                     6 -1.869568734366970E-006
                     7 -7.988814326783710E-007
                     8  2.797742343127200E-003
                     9  4.476000889893790E-008
                    10  1.550275611707320E-008
                    11 -6.504727534832070E-005
                    12  2.724950457883380E-007
                    13  1.216332334508580E-007
                    14 -4.035741121492880E-004
                    15  4.457787301042876E-005
                    16 -2.669810270666050E-008
                    17 -5.318666352349830E-008
                    18  4.887997937435860E-005
                    19 -2.618489378226940E-005
                    20 -2.363754880490697E-004
                    21  1.609965818356080E-007
                    22  2.759589174747660E-007
                    23 -2.295193368284820E-004
                    24  1.395094104510360E-004
                    25  1.879547306001643E-004
                    26  2.750878119748279E-007
                    27  1.086562174025378E-007
                    28 -1.824648818010202E-005
                    29 -3.005690758875210E-005
                    30 -4.239493461950853E-009
                    31  3.172156397709462E-008
                    32   1.00105528383770     
                    33  9.166600661655250E-003
                    34  2.619186476206610E-003
                    35 -7.779654644255970E-003
                    36  2.621753579951950E-006
                    37  1.121609972482100E-006
                    38 -3.929962319622620E-003
                    39 -7.286050264517399E-007
                    40 -3.113907836349580E-007
                    41  1.091496058216770E-003
                    42 -2.850789657554300E-006
                    43 -1.295824599351470E-006
                    44  4.279579064807530E-003
                    45  4.342478330452729E-004
                    46 -7.753591469933940E-007
                    47 -8.731770481590320E-008
                    48 -4.174681907856320E-004
                    49  1.698627756262210E-005
                    50  4.939016380432681E-004
                    51  9.573290498345600E-009
                    52 -5.014259593630349E-007
                    53  8.776997860520200E-004
                    54 -2.177277557638350E-005
                    55  3.657130367135679E-004
                    56  3.948756407701546E-007
                    57  3.588783239247493E-007
                    58 -1.971750171681218E-004
                    59  1.278459653150990E-005
                    60 -1.654559730215807E-007
                    61  6.047352497860839E-008
                    62  8.014917221524221E-003
                    63 -1.999954446164860E-003
                    64 -2.719622447299230E-004
                    65  2.986879919069740E-003
                    66  7.111056205401240E-006
                    67  1.242160810288450E-004
                    68 -3.915188517195460E-005
                    69 -3.614768612013030E-005
                    70  5.706748114987290E-004
                    71  5.966428655875050E-005
                    72  6.821886679866020E-005
                    73 -2.020393923577450E-003
                    74  9.719797282749341E-005
                    75 -1.683479825149777E-005
                    76  1.526572153200120E-006
                    77  1.594303015191810E-005
                    78  2.925525393549940E-005
                    79  2.202590911293630E-006
                    80  7.580914422185231E-004
                    81  2.694436414022950E-005
                    82 -4.184354808553480E-004
                    83 -1.730831106843570E-005
                    84 -1.756991780873350E-005
                    85  6.821051440130980E-005
                    86 -8.734800504143598E-007
                    87  4.046284057327195E-005
                    88 -1.234485911989878E-004
                    89  1.178286228936770E-006
                    90  2.210685337252219E-006
                    91  4.967702762166246E-005
                    92  8.014891190468580E-003
                    93 -2.000037789818310E-003
                    94 -2.720052381124080E-004
                    95  2.987079462460280E-003
                    96 -7.058043272832720E-006
                    97 -1.241945014699040E-004
                    98 -3.925609453308560E-005
                    99  3.606659503712700E-005
                   100 -5.707076879554271E-004
                   101  5.951744774338460E-005
                   102 -6.835576356796860E-005
                   103  2.020465771703010E-003
                   104  9.810917592262410E-005
                   105 -1.684016899295732E-005
                   106 -1.447574401770900E-006
                   107 -1.594621406669630E-005
                   108  2.924655312105560E-005
                   109  2.224788427898290E-006
                   110  7.585059786737428E-004
                   111 -2.873210557445230E-005
                   112  4.177160939722870E-004
                   113 -1.701219470537404E-005
                   114 -1.811096464763990E-005
                   115  6.825075915648817E-005
                   116  8.365364160922177E-007
                   117 -4.024993435261891E-005
                   118 -1.235157860831416E-004
                   119  1.180014831825800E-006
                   120 -2.412991632825380E-006
                   121 -4.959079086455760E-005
                   122 -2.201766506851950E-004
                   123 -7.494765020582040E-004
                   124  2.251629558129370E-004
                   125 -1.282716588274690E-004
                   126 -5.285903943061680E-006
                   127 -2.338972327002580E-005
                   128 -2.410504377541240E-004
                   129  1.078251142204440E-005
                   130  1.156533720996060E-006
                   131  5.446892971045530E-004
                   132 -1.234306213398990E-005
                   133  3.123475413730180E-004
                   134  7.301644260666580E-004
                   135 -1.607584940977606E-005
                   136 -2.746498998186530E-006
                   137  5.073393855124200E-005
                   138  1.436838177127804E-005
                   139  1.890388807431720E-006
                   140 -2.961216056501165E-004
                   141  3.550201697799920E-006
                   142 -2.248016694592010E-004
                   143 -1.733095746114672E-005
                   144 -8.109017203178530E-006
                   145 -1.198246425249742E-006
                   146  3.044378755143180E-006
                   147 -3.720960911061449E-005
                   148 -3.764272888691700E-005
                   149 -2.876325013699950E-006
                   150  8.504613753318660E-007
                   151 -6.261229136084139E-006
                   152 -2.198899140658120E-004
                   153 -7.485245017328950E-004
                   154  2.252280046865360E-004
                   155 -1.292866211954900E-004
                   156  5.608254739268610E-006
                   157  2.351834517476020E-005
                   158 -2.410334425408410E-004
                   159 -1.151269812558620E-005
                   160 -1.422735589360360E-006