[Molden Format]
[Atoms] AU
  N     1    7    -0.0001895500   -0.0000520600   -4.2959905600        
  C     2    6    -0.0003422400   -0.0004163400   -1.7753651400        
  C     3    6     0.0286948400   -2.3382141300   -0.4119208700        
  C     4    6    -0.0295445800    2.3369872600   -0.4112487300        
  C     5    6     0.0453709900   -2.3000254800    2.1642571000        
  C     6    6    -0.0465329100    2.2980539900    2.1649160500        
  C     7    6    -0.0006603300   -0.0011750700    3.4746114500        
  H     8    1    -0.4466814300   -1.5939152200   -5.3142109300        
  H     9    1     0.4464256600    1.5941053500   -5.3136960900        
  H    10    1     0.0735681200   -4.0723599600   -1.4469531000        
  H    11    1    -0.0742924800    4.0714321900   -1.4457851000        
  H    12    1     0.0973526700   -4.0414351900    3.1967330200        
  H    13    1    -0.0986397500    4.0391651900    3.1978889600        
  H    14    1    -0.0007831300   -0.0014679800    5.5013078400        
[5D]
[7F]
[GTO]
  1  0
   s    12 1.00
  0.114200D+05  0.172695D-04
  0.171200D+04  0.134411D-03
  0.389300D+03  0.694561D-03
  0.110000D+03  0.278531D-02
  0.355700D+02  0.863457D-02
  0.125400D+02  0.199805D-01
  0.464400D+01  0.262908D-01
  0.129300D+01 -0.243845D-01
  0.511800D+00 -0.924934D-01
  0.178700D+00 -0.339683D+00
  0.246240D-01  0.345111D+00
  0.112530D-01  0.752750D+00
   s    10 1.00
  0.114200D+05  0.523000D-03
  0.171200D+04  0.404500D-02
  0.389300D+03  0.207750D-01
  0.110000D+03  0.807269D-01
  0.355700D+02  0.233074D+00
  0.125400D+02  0.433501D+00
  0.464400D+01  0.347472D+00
  0.129300D+01  0.412620D-01
  0.511800D+00 -0.850799D-02
  0.178700D+00  0.238400D-02
   s    10 1.00
  0.114200D+05 -0.115000D-03
  0.171200D+04 -0.895000D-03
  0.389300D+03 -0.462400D-02
  0.110000D+03 -0.185280D-01
  0.355700D+02 -0.573390D-01
  0.125400D+02 -0.132076D+00
  0.464400D+01 -0.172510D+00
  0.129300D+01  0.151814D+00
  0.511800D+00  0.599944D+00
  0.178700D+00  0.387462D+00
   s     1 1.00
  0.129300D+01  0.100000D+01
   s     1 1.00
  0.178700D+00  0.100000D+01
   p     5 1.00
  0.266300D+02  0.146700D-01
  0.594800D+01  0.917640D-01
  0.174200D+01  0.298683D+00
  0.555000D+00  0.498487D+00
  0.172500D+00  0.337023D+00
   p     1 1.00
  0.174200D+01  0.100000D+01
   p     1 1.00
  0.555000D+00  0.100000D+01
   d     1 1.00
  0.165400D+01  0.100000D+01
   d     1 1.00
  0.469000D+00  0.100000D+01
   f     1 1.00
  0.109300D+01  0.100000D+01
  
  2  0
   s    10 1.00
  0.823600D+04  0.531000D-03
  0.123500D+04  0.410800D-02
  0.280800D+03  0.210870D-01
  0.792700D+02  0.818530D-01
  0.255900D+02  0.234817D+00
  0.899700D+01  0.434401D+00
  0.331900D+01  0.346129D+00
  0.905900D+00  0.393780D-01
  0.364300D+00 -0.898300D-02
  0.128500D+00  0.238500D-02
   s    10 1.00
  0.823600D+04 -0.113000D-03
  0.123500D+04 -0.878000D-03
  0.280800D+03 -0.454000D-02
  0.792700D+02 -0.181330D-01
  0.255900D+02 -0.557600D-01
  0.899700D+01 -0.126895D+00
  0.331900D+01 -0.170352D+00
  0.905900D+00  0.140382D+00
  0.364300D+00  0.598684D+00
  0.128500D+00  0.395389D+00
   s     1 1.00
  0.905900D+00  0.100000D+01
   s     1 1.00
  0.364300D+00  0.100000D+01
   p     5 1.00
  0.187100D+02  0.140310D-01
  0.413300D+01  0.868660D-01
  0.120000D+01  0.290216D+00
  0.382700D+00  0.501008D+00
  0.120900D+00  0.343406D+00
   p     1 1.00
  0.382700D+00  0.100000D+01
   p     1 1.00
  0.120900D+00  0.100000D+01
   d     1 1.00
  0.109700D+01  0.100000D+01
   d     1 1.00
  0.318000D+00  0.100000D+01
   f     1 1.00
  0.761000D+00  0.100000D+01
  
  3  0
   s    10 1.00
  0.823600D+04  0.531000D-03
  0.123500D+04  0.410800D-02
  0.280800D+03  0.210870D-01
  0.792700D+02  0.818530D-01
  0.255900D+02  0.234817D+00
  0.899700D+01  0.434401D+00
  0.331900D+01  0.346129D+00
  0.905900D+00  0.393780D-01
  0.364300D+00 -0.898300D-02
  0.128500D+00  0.238500D-02
   s    10 1.00
  0.823600D+04 -0.113000D-03
  0.123500D+04 -0.878000D-03
  0.280800D+03 -0.454000D-02
  0.792700D+02 -0.181330D-01
  0.255900D+02 -0.557600D-01
  0.899700D+01 -0.126895D+00
  0.331900D+01 -0.170352D+00
  0.905900D+00  0.140382D+00
  0.364300D+00  0.598684D+00
  0.128500D+00  0.395389D+00
   s     1 1.00
  0.905900D+00  0.100000D+01
   s     1 1.00
  0.364300D+00  0.100000D+01
   p     5 1.00
  0.187100D+02  0.140310D-01
  0.413300D+01  0.868660D-01
  0.120000D+01  0.290216D+00
  0.382700D+00  0.501008D+00
  0.120900D+00  0.343406D+00
   p     1 1.00
  0.382700D+00  0.100000D+01
   p     1 1.00
  0.120900D+00  0.100000D+01
   d     1 1.00
  0.109700D+01  0.100000D+01
   d     1 1.00
  0.318000D+00  0.100000D+01
   f     1 1.00
  0.761000D+00  0.100000D+01
  
  4  0
   s    10 1.00
  0.823600D+04  0.531000D-03
  0.123500D+04  0.410800D-02
  0.280800D+03  0.210870D-01
  0.792700D+02  0.818530D-01
  0.255900D+02  0.234817D+00
  0.899700D+01  0.434401D+00
  0.331900D+01  0.346129D+00
  0.905900D+00  0.393780D-01
  0.364300D+00 -0.898300D-02
  0.128500D+00  0.238500D-02
   s    10 1.00
  0.823600D+04 -0.113000D-03
  0.123500D+04 -0.878000D-03
  0.280800D+03 -0.454000D-02
  0.792700D+02 -0.181330D-01
  0.255900D+02 -0.557600D-01
  0.899700D+01 -0.126895D+00
  0.331900D+01 -0.170352D+00
  0.905900D+00  0.140382D+00
  0.364300D+00  0.598684D+00
  0.128500D+00  0.395389D+00
   s     1 1.00
  0.905900D+00  0.100000D+01
   s     1 1.00
  0.364300D+00  0.100000D+01
   p     5 1.00
  0.187100D+02  0.140310D-01
  0.413300D+01  0.868660D-01
  0.120000D+01  0.290216D+00
  0.382700D+00  0.501008D+00
  0.120900D+00  0.343406D+00
   p     1 1.00
  0.382700D+00  0.100000D+01
   p     1 1.00
  0.120900D+00  0.100000D+01
   d     1 1.00
  0.109700D+01  0.100000D+01
   d     1 1.00
  0.318000D+00  0.100000D+01
   f     1 1.00
  0.761000D+00  0.100000D+01
  
  5  0
   s    10 1.00
  0.823600D+04  0.531000D-03
  0.123500D+04  0.410800D-02
  0.280800D+03  0.210870D-01
  0.792700D+02  0.818530D-01
  0.255900D+02  0.234817D+00
  0.899700D+01  0.434401D+00
  0.331900D+01  0.346129D+00
  0.905900D+00  0.393780D-01
  0.364300D+00 -0.898300D-02
  0.128500D+00  0.238500D-02
   s    10 1.00
  0.823600D+04 -0.113000D-03
  0.123500D+04 -0.878000D-03
  0.280800D+03 -0.454000D-02
  0.792700D+02 -0.181330D-01
  0.255900D+02 -0.557600D-01
  0.899700D+01 -0.126895D+00
  0.331900D+01 -0.170352D+00
  0.905900D+00  0.140382D+00
  0.364300D+00  0.598684D+00
  0.128500D+00  0.395389D+00
   s     1 1.00
  0.905900D+00  0.100000D+01
   s     1 1.00
  0.364300D+00  0.100000D+01
   p     5 1.00
  0.187100D+02  0.140310D-01
  0.413300D+01  0.868660D-01
  0.120000D+01  0.290216D+00
  0.382700D+00  0.501008D+00
  0.120900D+00  0.343406D+00
   p     1 1.00
  0.382700D+00  0.100000D+01
   p     1 1.00
  0.120900D+00  0.100000D+01
   d     1 1.00
  0.109700D+01  0.100000D+01
   d     1 1.00
  0.318000D+00  0.100000D+01
   f     1 1.00
  0.761000D+00  0.100000D+01
  
  6  0
   s    10 1.00
  0.823600D+04  0.531000D-03
  0.123500D+04  0.410800D-02
  0.280800D+03  0.210870D-01
  0.792700D+02  0.818530D-01
  0.255900D+02  0.234817D+00
  0.899700D+01  0.434401D+00
  0.331900D+01  0.346129D+00
  0.905900D+00  0.393780D-01
  0.364300D+00 -0.898300D-02
  0.128500D+00  0.238500D-02
   s    10 1.00
  0.823600D+04 -0.113000D-03
  0.123500D+04 -0.878000D-03
  0.280800D+03 -0.454000D-02
  0.792700D+02 -0.181330D-01
  0.255900D+02 -0.557600D-01
  0.899700D+01 -0.126895D+00
  0.331900D+01 -0.170352D+00
  0.905900D+00  0.140382D+00
  0.364300D+00  0.598684D+00
  0.128500D+00  0.395389D+00
   s     1 1.00
  0.905900D+00  0.100000D+01
   s     1 1.00
  0.364300D+00  0.100000D+01
   p     5 1.00
  0.187100D+02  0.140310D-01
  0.413300D+01  0.868660D-01
  0.120000D+01  0.290216D+00
  0.382700D+00  0.501008D+00
  0.120900D+00  0.343406D+00
   p     1 1.00
  0.382700D+00  0.100000D+01
   p     1 1.00
  0.120900D+00  0.100000D+01
   d     1 1.00
  0.109700D+01  0.100000D+01
   d     1 1.00
  0.318000D+00  0.100000D+01
   f     1 1.00
  0.761000D+00  0.100000D+01
  
  7  0
   s    10 1.00
  0.823600D+04  0.531000D-03
  0.123500D+04  0.410800D-02
  0.280800D+03  0.210870D-01
  0.792700D+02  0.818530D-01
  0.255900D+02  0.234817D+00
  0.899700D+01  0.434401D+00
  0.331900D+01  0.346129D+00
  0.905900D+00  0.393780D-01
  0.364300D+00 -0.898300D-02
  0.128500D+00  0.238500D-02
   s    10 1.00
  0.823600D+04 -0.113000D-03
  0.123500D+04 -0.878000D-03
  0.280800D+03 -0.454000D-02
  0.792700D+02 -0.181330D-01
  0.255900D+02 -0.557600D-01
  0.899700D+01 -0.126895D+00
  0.331900D+01 -0.170352D+00
  0.905900D+00  0.140382D+00
  0.364300D+00  0.598684D+00
  0.128500D+00  0.395389D+00
   s     1 1.00
  0.905900D+00  0.100000D+01
   s     1 1.00
  0.364300D+00  0.100000D+01
   p     5 1.00
  0.187100D+02  0.140310D-01
  0.413300D+01  0.868660D-01
  0.120000D+01  0.290216D+00
  0.382700D+00  0.501008D+00
  0.120900D+00  0.343406D+00
   p     1 1.00
  0.382700D+00  0.100000D+01
   p     1 1.00
  0.120900D+00  0.100000D+01
   d     1 1.00
  0.109700D+01  0.100000D+01
   d     1 1.00
  0.318000D+00  0.100000D+01
   f     1 1.00
  0.761000D+00  0.100000D+01
  
  8  0
   s     4 1.00
  0.130100D+02  0.196850D-01
  0.196200D+01  0.137977D+00
  0.444600D+00  0.478148D+00
  0.122000D+00  0.501240D+00
   s     1 1.00
  0.122000D+00  0.100000D+01
   p     1 1.00
  0.727000D+00  0.100000D+01
  
  9  0
   s     4 1.00
  0.130100D+02  0.196850D-01
  0.196200D+01  0.137977D+00
  0.444600D+00  0.478148D+00
  0.122000D+00  0.501240D+00
   s     1 1.00
  0.122000D+00  0.100000D+01
   p     1 1.00
  0.727000D+00  0.100000D+01
  
 10  0
   s     4 1.00
  0.130100D+02  0.196850D-01
  0.196200D+01  0.137977D+00
  0.444600D+00  0.478148D+00
  0.122000D+00  0.501240D+00
   s     1 1.00
  0.122000D+00  0.100000D+01
   p     1 1.00
  0.727000D+00  0.100000D+01
  
 11  0
   s     4 1.00
  0.130100D+02  0.196850D-01
  0.196200D+01  0.137977D+00
  0.444600D+00  0.478148D+00
  0.122000D+00  0.501240D+00
   s     1 1.00
  0.122000D+00  0.100000D+01
   p     1 1.00
  0.727000D+00  0.100000D+01
  
 12  0
   s     4 1.00
  0.130100D+02  0.196850D-01
  0.196200D+01  0.137977D+00
  0.444600D+00  0.478148D+00
  0.122000D+00  0.501240D+00
   s     1 1.00
  0.122000D+00  0.100000D+01
   p     1 1.00
  0.727000D+00  0.100000D+01
  
 13  0
   s     4 1.00
  0.130100D+02  0.196850D-01
  0.196200D+01  0.137977D+00
  0.444600D+00  0.478148D+00
  0.122000D+00  0.501240D+00
   s     1 1.00
  0.122000D+00  0.100000D+01
   p     1 1.00
  0.727000D+00  0.100000D+01
  
 14  0
   s     4 1.00
  0.130100D+02  0.196850D-01
  0.196200D+01  0.137977D+00
  0.444600D+00  0.478148D+00
  0.122000D+00  0.501240D+00
   s     1 1.00
  0.122000D+00  0.100000D+01
   p     1 1.00
  0.727000D+00  0.100000D+01
  
[MO]
 Sym= __1_A__
 Ene=  0.000000000000000E+000
 Spin= Alpha
 Occup=    2.00000000000000     
                     1  4.258070638215118E-005
                     2  0.998057913693620     
                     3  9.179523775792070E-003
                     4  2.067218367993240E-003
                     5  1.569510629526737E-003
                     6 -2.679819109835797E-007
                     7 -6.559135174510289E-007
                     8  4.464294160678998E-003
                     9  6.008218272443901E-009
                    10  2.959837781030853E-008
                    11 -1.303271515366148E-004
                    12  5.967984046860390E-009
                    13 -1.272423923966972E-008
                    14 -1.341915518498838E-004
                    15  2.604821993980336E-004
                    16 -2.642058895766704E-008
                    17 -4.710503387352594E-008
                    18 -1.021536189442159E-004
                    19  4.644867563011452E-005
                    20  1.541676836020783E-004
                    21 -2.551787285591543E-008
                    22 -1.521401570162302E-007
                    23  5.012395540069936E-004
                    24 -2.591404789419305E-004
                    25 -1.882810603983756E-004
                    26 -2.611801571806357E-008
                    27 -8.736704254917570E-008
                    28  8.334785862027383E-005
                    29 -2.781426554280518E-005
                    30  1.137529710600208E-008
                    31 -1.398556748351384E-008
                    32 -3.502108982069992E-004
                    33  2.722030566778949E-003
                    34  1.462605692728310E-004
                    35 -2.799137087077766E-004
                    36  4.211844025730995E-007
                    37  1.034046335776376E-006
                    38 -7.028755441608113E-003
                    39 -1.615696465954430E-008
                    40 -9.937095282603162E-008
                    41  3.383883857188002E-004
                    42 -2.685809055644938E-007
                    43 -5.945651937235755E-007
                    44  4.385328116438591E-003
                    45  3.477288098004305E-004
                    46 -2.947981447053049E-008
                    47 -9.712992786784834E-008
                    48  1.337357841116574E-004
                    49 -7.997518129576693E-006
                    50  1.022954035097280E-004
                    51 -2.541467527143787E-008
                    52 -1.058346561730841E-007
                    53 -4.051576236742202E-004
                    54  6.622071749510651E-005
                    55 -1.086639452155062E-004
                    56 -1.160828207627472E-008
                    57 -5.906309475770464E-008
                    58  7.436141661229620E-005
                    59 -1.294104497106903E-005
                    60  7.811826274881049E-009
                    61 -1.592337529296551E-008
                    62 -2.100921733066638E-004
                    63 -1.672138152438234E-003
                    64  5.257402684522581E-005
                    65  5.860461091313294E-004
                    66 -1.542870534412139E-005
                    67 -8.399102788576995E-004
                    68  1.012233867736322E-003
                    69  3.264422277592579E-005
                    70 -2.158578025852530E-005
                    71  5.830794642070316E-004
                    72  1.818973143888067E-005
                    73 -5.905209677501137E-004
                    74 -1.480241845965391E-004
                    75  9.140958330997289E-005
                    76  1.777158004681441E-006
                    77 -9.150370225392395E-006
                    78  4.019466522777594E-005
                    79 -2.766468320137594E-007
                    80 -1.149994205032247E-005
                    81 -2.338623928571179E-005
                    82  1.897410940959182E-004
                    83 -2.480594758964642E-005
                    84  1.933034233977439E-005
                    85 -9.205815547725129E-005
                    86  2.340754677268644E-006
                    87 -2.713491045212025E-005
                    88  2.053042300416040E-005
                    89 -4.636881634414651E-006
                    90  1.198021058196928E-006
                    91  1.388310109541869E-005
                    92 -2.100558044507347E-004
                    93 -1.671991849826325E-003
                    94  5.274023910599713E-005
                    95  5.854968968897089E-004
                    96  1.530445889203949E-005
                    97  8.396369222680476E-004
                    98  1.012587188581786E-003
                    99 -3.271095350756154E-005
                   100  2.127657301605388E-005
                   101  5.824470845290406E-004
                   102 -1.815777079556662E-005
                   103  5.899857008917454E-004
                   104 -1.476995780431706E-004
                   105  9.138093207874448E-005
                   106 -1.791345140085285E-006
                   107  9.109945937653360E-006
                   108  4.019955857959226E-005
                   109 -2.772740127052215E-007
                   110 -1.203352429545163E-005
                   111  2.339469964472263E-005
                   112 -1.898327774283090E-004
                   113 -2.495350851025978E-005
                   114  1.934532857096014E-005
                   115 -9.200901998702604E-005
                   116 -2.366147979835707E-006
                   117  2.706132743273975E-005
                   118  2.053415865032234E-005
                   119 -4.643906124250686E-006
                   120 -1.193634012706864E-006
                   121 -1.388891319729349E-005
                   122 -1.490486804424889E-004
                   123 -8.768725638507382E-007
                   124  1.091458737002771E-004
                   125  1.354490012358066E-004
                   126 -1.794437286700393E-005
                   127  4.132922916060671E-005
                   128 -7.915056618380635E-004
                   129  1.161790278565324E-006
                   130  2.142397176804475E-005
                   131  3.415189000016460E-004
                   132  1.155779455364502E-005
                   133 -1.569674547994930E-004
                   134  7.002512775411021E-004
                   135 -1.650326165803357E-005
                   136  1.322595921807445E-006
                   137  2.019161424147110E-006
                   138  1.172612182003981E-006
                   139  1.014051012635954E-006
                   140 -1.856692695496296E-004
                   141 -1.213653116195175E-005
                   142  1.627566339526062E-004
                   143  1.441881379525542E-005
                   144 -5.965084034587688E-006
                   145 -3.828015604174714E-005
                   146  3.901035731130673E-007
                   147  8.575541059379205E-007
                   148 -9.329487659807192E-006
                   149 -9.623173630039053E-007
                   150 -4.976471386842275E-007
                   151 -3.453644319872913E-006
                   152 -1.495256785497898E-004
                   153 -2.561706532196202E-006
                   154  1.086668891336777E-004
                   155  1.384770907119588E-004
                   156  1.803361687703627E-005
                   157 -4.104474619476313E-005
                   158 -7.914838394209374E-004
                   159 -1.185016744934145E-006
                   160 -2.187434951072534E-005
                   161  3.411502344613991E-004
                   162 -1.165695607918000E-005
                   163  1.573180192874946E-004
                   164  7.004634218187979E-004
                   165 -1.645023021053824E-005
                   166 -1.319487773806140E-006
                   167 -2.018689156643937E-006
                   168  1.120549486678052E-006
                   169  1.012088255116606E-006
                   170 -1.856113645364021E-004
                   171  1.217581766418267E-005
                   172 -1.629254245168448E-004
                   173  1.432678363545313E-005
                   174 -5.948234149202549E-006
                   175 -3.819207905247804E-005
                   176 -4.019278169380752E-007
                   177 -8.728221259050974E-007
                   178 -9.379669594775163E-006
                   179 -9.631831347368693E-007
                   180  4.965183335033808E-007
                   181  3.466329374725056E-006
                   182 -1.237591866934475E-004
                   183 -3.322939552619790E-004
                   184  3.171838125559068E-005
                   185  1.574643974865065E-004
                   186 -2.662190919513946E-009
                   187  9.227073359819688E-008
                   188 -4.199332801770392E-005
                   189  1.238404467154164E-008
                   190 -4.319526605271867E-007
                   191  1.761136691781192E-005
                   192 -1.231295393005192E-010
                   193 -4.371560801220457E-008
                   194  4.167355030832052E-005
                   195  1.894479272117341E-005
                   196 -2.056802144629101E-009
                   197  1.777764306608420E-008
                   198  8.806474797266045E-006
                   199  4.702526067050227E-007
                   200  5.741131841870840E-005
                   201 -7.615028305825894E-009
                   202  1.880277219057298E-007
                   203  4.713024276757580E-005
                   204 -4.485323713002379E-006
                   205 -1.168333213490641E-005
                   206 -8.065973744019827E-010
                   207 -1.286852881379958E-008
                   208  3.272888830916182E-006
                   209  1.240358555467084E-006
                   210  1.691050824413634E-009
                   211  2.640334919279637E-008
                   212  3.850226614184121E-003
                   213 -2.320343908010024E-003
                   214  1.374690081063693E-004
                   215  4.466674679852170E-004
                   216  3.754877133255186E-004
                   217  3.850204400219470E-003
                   218 -2.320334091210007E-003
                   219 -1.375144945634483E-004
                   220 -4.467745493402928E-004
                   221  3.753450505159630E-004
                   222 -6.562270030381217E-004
                   223 -1.447478349270171E-004
                   224  1.210914071074050E-006
                   225 -1.871785782441052E-005
                   226 -4.421091433113304E-005
                   227 -6.562963238321977E-004
                   228 -1.443739381043699E-004
                   229 -1.205661630334578E-006
                   230  1.871243258146810E-005
                   231 -4.423233660120608E-005
                   232 -2.324485520623443E-004
                   233 -3.974948272240394E-004
                   234 -1.477856222517889E-006
                   235 -6.158524309445684E-006
                   236  5.364280096015800E-006
                   237 -2.324880279275650E-004
                   238 -3.976566749495794E-004
                   239  1.475486909066261E-006
                   240  6.203324590837326E-006
                   241  5.413248659612940E-006
                   242  6.864815769766191E-005
                   243 -1.213536423657735E-004
                   244 -9.877706911991589E-010
                   245 -2.312881389036081E-008
                   246  1.461769134409661E-005
 Sym= __2_A__
 Ene=  0.000000000000000E+000
 Spin= Alpha
 Occup=    2.00000000000000     
                     1 -4.373980955100855E-005
                     2 -2.047062390124167E-004
                     3  2.266847714947961E-003
                     4  9.842955445043019E-005
                     5  1.264206072646970E-003
                     6 -1.789936340953811E-007
                     7 -4.201216109423602E-007
                     8  2.942207095487780E-003
                     9  3.720600479538807E-009
                    10  3.914822731317404E-009
                    11 -5.519154945885084E-005
                    12  3.228639227108473E-008
                    13  7.828749314005454E-008
                    14 -4.981573596483324E-004
                    15  4.321772494180537E-005
                    16 -3.583148029790113E-009
                    17 -2.002267877666951E-008
                    18  5.959684085093890E-005
                    19 -1.704006021593145E-005
                    20 -2.684594420373475E-004
                    21  2.479340100788017E-008
                    22  1.149548462731826E-007
                    23 -2.975675479309624E-004
                    24  9.639500964639542E-005
                    25  1.829951709816001E-004
                    26  2.260426950694837E-008
                    27  6.489812167806519E-008
                    28 -7.073194943559916E-006
                    29 -2.049211075817783E-005
                    30  3.306145075946395E-009
                    31  3.435374062320472E-009
                    32   1.00105800519928     
                    33  9.247000268696928E-003
                    34  2.627924585918141E-003
                    35 -7.766686072588748E-003
                    36  2.469403508693371E-007
                    37  5.850380165108897E-007
                    38 -4.080549264730997E-003
                    39 -6.292893668660168E-008
                    40 -1.496871788220293E-007
                    41  1.035427657614945E-003
                    42 -2.638073329975533E-007
                    43 -7.026171631022632E-007
                    44  4.395596582038132E-003
                    45  4.628809525601703E-004
                    46 -7.262902606990827E-008
                    47 -5.614239344975541E-008
                    48 -4.263724881412116E-004
                    49  1.168549198495505E-005
                    50  5.500273636172308E-004
                    51 -4.110351260181864E-009
                    52 -2.632242030476494E-007
                    53  9.159897155167431E-004
                    54 -1.900827174955806E-005
                    55  3.799976175357990E-004
                    56  3.835860371765736E-008
                    57  1.804590299415041E-007
                    58 -2.031426635462430E-004
                    59  8.644278519089460E-006
                    60 -1.650171563742698E-008
                    61  3.692249182112959E-008
                    62  7.449883187140834E-003
                    63 -2.039994436283190E-003
                    64 -2.743327631435877E-004
                    65  3.020614573992016E-003
                    66  5.696759067656933E-006
                    67  1.035433547774013E-004
                    68 -1.811187582657395E-005
                    69 -2.487927596825299E-005
                    70  5.904999671589942E-004
                    71  3.326374561215950E-005
                    72  4.325876431602317E-005
                    73 -2.071010349510414E-003
                    74  9.521239187288677E-005
                    75 -1.553329689002683E-005
                    76  8.023390577017597E-007
                    77  1.453254615028709E-005
                    78  2.920885108433642E-005
                    79  1.435163213655407E-006
                    80  7.605911639869938E-004
                    81  1.875599613790965E-005
                    82 -4.207816919894311E-004
                    83 -1.371764897238531E-005
                    84 -1.214803782083963E-005
                    85  7.169629078292527E-005
                    86 -4.890545779957376E-007
                    87  4.417625380898820E-005
                    88 -1.260099166595383E-004
                    89  1.205268069716540E-006
                    90  1.155244336424394E-006
                    91  4.994911575819061E-005
                    92  7.449856853942521E-003
                    93 -2.040078072403819E-003
                    94 -2.743734760735129E-004
                    95  3.020809341370263E-003
                    96 -5.693991804684236E-006
                    97 -1.035386084782326E-004
                    98 -1.816433715987848E-005
                    99  2.487426521365860E-005
                   100 -5.905109889579654E-004
                   101  3.321931508687168E-005
                   102 -4.327414450357898E-005
                   103  2.071102190371255E-003
                   104  9.565216763547367E-005
                   105 -1.552719639190078E-005
                   106 -7.952271709924620E-007
                   107 -1.453892868817366E-005
                   108  2.920318435649138E-005
                   109  1.437185746262628E-006
                   110  7.608540617113227E-004
                   111 -1.892217916926391E-005
                   112  4.204500364604219E-004
                   113 -1.357612165719343E-005
                   114 -1.219306805446701E-005
                   115  7.171480887876933E-005
                   116  4.864195220514309E-007
                   117 -4.406474855825155E-005
                   118 -1.260453812333655E-004
                   119  1.205714153332772E-006
                   120 -1.174159819032755E-006
                   121 -4.990303498758784E-005
                   122 -2.290505284409866E-004
                   123 -7.521934808641464E-004
                   124  2.245405998957307E-004
                   125 -1.151989944788786E-004
                   126 -3.167810858963090E-006
                   127 -1.978853266700199E-005
                   128 -2.512239335705601E-004
                   129  5.928975190962486E-006
                   130 -6.017191259904487E-006
                   131  5.383895856320434E-004
                   132 -8.686618247867021E-006
                   133  3.220533371636601E-004
                   134  7.452244509311923E-004
                   135 -1.457705360871464E-005
                   136 -1.777533210540204E-006
                   137  5.138162766703078E-005
                   138  1.406324929572494E-005
                   139  1.029040605312901E-006
                   140 -2.917935254646768E-004
                   141  3.784616782603111E-006
                   142 -2.202326230806883E-004
                   143 -1.451480521361852E-005
                   144 -3.936154678574249E-006
                   145  4.447035255352634E-007
                   146  1.633338476126892E-006
                   147 -3.990464478355705E-005
                   148 -3.916352618672214E-005
                   149 -1.682761580998216E-006
                   150  6.364030683392062E-007
                   151 -5.802870461488387E-006
                   152 -2.287691281853290E-004
                   153 -7.512597753826848E-004
                   154  2.245969381441802E-004
                   155 -1.161691272960899E-004
                   156  3.198432853698336E-006
                   157  1.985282332773072E-005
                   158 -2.512212087089336E-004
                   159 -5.995695218624563E-006
                   160  5.899386038016356E-006