[Molden Format]
[Atoms] AU
  N     1    7    -0.0048532200   -0.0034273700   -4.3632698700        
  C     2    6    -0.0034076400   -0.0044610900   -1.7321749400        
  C     3    6     0.1058961700   -2.3212654300   -0.4142494700        
  C     4    6    -0.1112622300    2.3113069000   -0.4123100800        
  C     5    6     0.1905576700   -2.2891907300    2.1806152800        
  C     6    6    -0.1930723700    2.2771931900    2.1826201300        
  C     7    6    -0.0005465700   -0.0065070600    3.4753316000        
  H     8    1    -1.4935497000   -0.7687910800   -5.3777279200        
  H     9    1     1.4827279800    0.7627338800   -5.3787614300        
  H    10    1     0.2116487900   -4.0481082000   -1.4565154600        
  H    11    1    -0.2181593000    4.0389680700   -1.4531020000        
  H    12    1     0.3765358000   -4.0225927300    3.2106863700        
  H    13    1    -0.3779177600    4.0097851700    3.2142567000        
  H    14    1     0.0005679600   -0.0073040800    5.5039620100        
[5D]
[7F]
[GTO]
  1  0
   s    12 1.00
  0.114200D+05  0.172695D-04
  0.171200D+04  0.134411D-03
  0.389300D+03  0.694561D-03
  0.110000D+03  0.278531D-02
  0.355700D+02  0.863457D-02
  0.125400D+02  0.199805D-01
  0.464400D+01  0.262908D-01
  0.129300D+01 -0.243845D-01
  0.511800D+00 -0.924934D-01
  0.178700D+00 -0.339683D+00
  0.246240D-01  0.345111D+00
  0.112530D-01  0.752750D+00
   s    10 1.00
  0.114200D+05  0.523000D-03
  0.171200D+04  0.404500D-02
  0.389300D+03  0.207750D-01
  0.110000D+03  0.807269D-01
  0.355700D+02  0.233074D+00
  0.125400D+02  0.433501D+00
  0.464400D+01  0.347472D+00
  0.129300D+01  0.412620D-01
  0.511800D+00 -0.850799D-02
  0.178700D+00  0.238400D-02
   s    10 1.00
  0.114200D+05 -0.115000D-03
  0.171200D+04 -0.895000D-03
  0.389300D+03 -0.462400D-02
  0.110000D+03 -0.185280D-01
  0.355700D+02 -0.573390D-01
  0.125400D+02 -0.132076D+00
  0.464400D+01 -0.172510D+00
  0.129300D+01  0.151814D+00
  0.511800D+00  0.599944D+00
  0.178700D+00  0.387462D+00
   s     1 1.00
  0.129300D+01  0.100000D+01
   s     1 1.00
  0.178700D+00  0.100000D+01
   p     5 1.00
  0.266300D+02  0.146700D-01
  0.594800D+01  0.917640D-01
  0.174200D+01  0.298683D+00
  0.555000D+00  0.498487D+00
  0.172500D+00  0.337023D+00
   p     1 1.00
  0.174200D+01  0.100000D+01
   p     1 1.00
  0.555000D+00  0.100000D+01
   d     1 1.00
  0.165400D+01  0.100000D+01
   d     1 1.00
  0.469000D+00  0.100000D+01
   f     1 1.00
  0.109300D+01  0.100000D+01
  
  2  0
   s    10 1.00
  0.823600D+04  0.531000D-03
  0.123500D+04  0.410800D-02
  0.280800D+03  0.210870D-01
  0.792700D+02  0.818530D-01
  0.255900D+02  0.234817D+00
  0.899700D+01  0.434401D+00
  0.331900D+01  0.346129D+00
  0.905900D+00  0.393780D-01
  0.364300D+00 -0.898300D-02
  0.128500D+00  0.238500D-02
   s    10 1.00
  0.823600D+04 -0.113000D-03
  0.123500D+04 -0.878000D-03
  0.280800D+03 -0.454000D-02
  0.792700D+02 -0.181330D-01
  0.255900D+02 -0.557600D-01
  0.899700D+01 -0.126895D+00
  0.331900D+01 -0.170352D+00
  0.905900D+00  0.140382D+00
  0.364300D+00  0.598684D+00
  0.128500D+00  0.395389D+00
   s     1 1.00
  0.905900D+00  0.100000D+01
   s     1 1.00
  0.364300D+00  0.100000D+01
   p     5 1.00
  0.187100D+02  0.140310D-01
  0.413300D+01  0.868660D-01
  0.120000D+01  0.290216D+00
  0.382700D+00  0.501008D+00
  0.120900D+00  0.343406D+00
   p     1 1.00
  0.382700D+00  0.100000D+01
   p     1 1.00
  0.120900D+00  0.100000D+01
   d     1 1.00
  0.109700D+01  0.100000D+01
   d     1 1.00
  0.318000D+00  0.100000D+01
   f     1 1.00
  0.761000D+00  0.100000D+01
  
  3  0
   s    10 1.00
  0.823600D+04  0.531000D-03
  0.123500D+04  0.410800D-02
  0.280800D+03  0.210870D-01
  0.792700D+02  0.818530D-01
  0.255900D+02  0.234817D+00
  0.899700D+01  0.434401D+00
  0.331900D+01  0.346129D+00
  0.905900D+00  0.393780D-01
  0.364300D+00 -0.898300D-02
  0.128500D+00  0.238500D-02
   s    10 1.00
  0.823600D+04 -0.113000D-03
  0.123500D+04 -0.878000D-03
  0.280800D+03 -0.454000D-02
  0.792700D+02 -0.181330D-01
  0.255900D+02 -0.557600D-01
  0.899700D+01 -0.126895D+00
  0.331900D+01 -0.170352D+00
  0.905900D+00  0.140382D+00
  0.364300D+00  0.598684D+00
  0.128500D+00  0.395389D+00
   s     1 1.00
  0.905900D+00  0.100000D+01
   s     1 1.00
  0.364300D+00  0.100000D+01
   p     5 1.00
  0.187100D+02  0.140310D-01
  0.413300D+01  0.868660D-01
  0.120000D+01  0.290216D+00
  0.382700D+00  0.501008D+00
  0.120900D+00  0.343406D+00
   p     1 1.00
  0.382700D+00  0.100000D+01
   p     1 1.00
  0.120900D+00  0.100000D+01
   d     1 1.00
  0.109700D+01  0.100000D+01
   d     1 1.00
  0.318000D+00  0.100000D+01
   f     1 1.00
  0.761000D+00  0.100000D+01
  
  4  0
   s    10 1.00
  0.823600D+04  0.531000D-03
  0.123500D+04  0.410800D-02
  0.280800D+03  0.210870D-01
  0.792700D+02  0.818530D-01
  0.255900D+02  0.234817D+00
  0.899700D+01  0.434401D+00
  0.331900D+01  0.346129D+00
  0.905900D+00  0.393780D-01
  0.364300D+00 -0.898300D-02
  0.128500D+00  0.238500D-02
   s    10 1.00
  0.823600D+04 -0.113000D-03
  0.123500D+04 -0.878000D-03
  0.280800D+03 -0.454000D-02
  0.792700D+02 -0.181330D-01
  0.255900D+02 -0.557600D-01
  0.899700D+01 -0.126895D+00
  0.331900D+01 -0.170352D+00
  0.905900D+00  0.140382D+00
  0.364300D+00  0.598684D+00
  0.128500D+00  0.395389D+00
   s     1 1.00
  0.905900D+00  0.100000D+01
   s     1 1.00
  0.364300D+00  0.100000D+01
   p     5 1.00
  0.187100D+02  0.140310D-01
  0.413300D+01  0.868660D-01
  0.120000D+01  0.290216D+00
  0.382700D+00  0.501008D+00
  0.120900D+00  0.343406D+00
   p     1 1.00
  0.382700D+00  0.100000D+01
   p     1 1.00
  0.120900D+00  0.100000D+01
   d     1 1.00
  0.109700D+01  0.100000D+01
   d     1 1.00
  0.318000D+00  0.100000D+01
   f     1 1.00
  0.761000D+00  0.100000D+01
  
  5  0
   s    10 1.00
  0.823600D+04  0.531000D-03
  0.123500D+04  0.410800D-02
  0.280800D+03  0.210870D-01
  0.792700D+02  0.818530D-01
  0.255900D+02  0.234817D+00
  0.899700D+01  0.434401D+00
  0.331900D+01  0.346129D+00
  0.905900D+00  0.393780D-01
  0.364300D+00 -0.898300D-02
  0.128500D+00  0.238500D-02
   s    10 1.00
  0.823600D+04 -0.113000D-03
  0.123500D+04 -0.878000D-03
  0.280800D+03 -0.454000D-02
  0.792700D+02 -0.181330D-01
  0.255900D+02 -0.557600D-01
  0.899700D+01 -0.126895D+00
  0.331900D+01 -0.170352D+00
  0.905900D+00  0.140382D+00
  0.364300D+00  0.598684D+00
  0.128500D+00  0.395389D+00
   s     1 1.00
  0.905900D+00  0.100000D+01
   s     1 1.00
  0.364300D+00  0.100000D+01
   p     5 1.00
  0.187100D+02  0.140310D-01
  0.413300D+01  0.868660D-01
  0.120000D+01  0.290216D+00
  0.382700D+00  0.501008D+00
  0.120900D+00  0.343406D+00
   p     1 1.00
  0.382700D+00  0.100000D+01
   p     1 1.00
  0.120900D+00  0.100000D+01
   d     1 1.00
  0.109700D+01  0.100000D+01
   d     1 1.00
  0.318000D+00  0.100000D+01
   f     1 1.00
  0.761000D+00  0.100000D+01
  
  6  0
   s    10 1.00
  0.823600D+04  0.531000D-03
  0.123500D+04  0.410800D-02
  0.280800D+03  0.210870D-01
  0.792700D+02  0.818530D-01
  0.255900D+02  0.234817D+00
  0.899700D+01  0.434401D+00
  0.331900D+01  0.346129D+00
  0.905900D+00  0.393780D-01
  0.364300D+00 -0.898300D-02
  0.128500D+00  0.238500D-02
   s    10 1.00
  0.823600D+04 -0.113000D-03
  0.123500D+04 -0.878000D-03
  0.280800D+03 -0.454000D-02
  0.792700D+02 -0.181330D-01
  0.255900D+02 -0.557600D-01
  0.899700D+01 -0.126895D+00
  0.331900D+01 -0.170352D+00
  0.905900D+00  0.140382D+00
  0.364300D+00  0.598684D+00
  0.128500D+00  0.395389D+00
   s     1 1.00
  0.905900D+00  0.100000D+01
   s     1 1.00
  0.364300D+00  0.100000D+01
   p     5 1.00
  0.187100D+02  0.140310D-01
  0.413300D+01  0.868660D-01
  0.120000D+01  0.290216D+00
  0.382700D+00  0.501008D+00
  0.120900D+00  0.343406D+00
   p     1 1.00
  0.382700D+00  0.100000D+01
   p     1 1.00
  0.120900D+00  0.100000D+01
   d     1 1.00
  0.109700D+01  0.100000D+01
   d     1 1.00
  0.318000D+00  0.100000D+01
   f     1 1.00
  0.761000D+00  0.100000D+01
  
  7  0
   s    10 1.00
  0.823600D+04  0.531000D-03
  0.123500D+04  0.410800D-02
  0.280800D+03  0.210870D-01
  0.792700D+02  0.818530D-01
  0.255900D+02  0.234817D+00
  0.899700D+01  0.434401D+00
  0.331900D+01  0.346129D+00
  0.905900D+00  0.393780D-01
  0.364300D+00 -0.898300D-02
  0.128500D+00  0.238500D-02
   s    10 1.00
  0.823600D+04 -0.113000D-03
  0.123500D+04 -0.878000D-03
  0.280800D+03 -0.454000D-02
  0.792700D+02 -0.181330D-01
  0.255900D+02 -0.557600D-01
  0.899700D+01 -0.126895D+00
  0.331900D+01 -0.170352D+00
  0.905900D+00  0.140382D+00
  0.364300D+00  0.598684D+00
  0.128500D+00  0.395389D+00
   s     1 1.00
  0.905900D+00  0.100000D+01
   s     1 1.00
  0.364300D+00  0.100000D+01
   p     5 1.00
  0.187100D+02  0.140310D-01
  0.413300D+01  0.868660D-01
  0.120000D+01  0.290216D+00
  0.382700D+00  0.501008D+00
  0.120900D+00  0.343406D+00
   p     1 1.00
  0.382700D+00  0.100000D+01
   p     1 1.00
  0.120900D+00  0.100000D+01
   d     1 1.00
  0.109700D+01  0.100000D+01
   d     1 1.00
  0.318000D+00  0.100000D+01
   f     1 1.00
  0.761000D+00  0.100000D+01
  
  8  0
   s     4 1.00
  0.130100D+02  0.196850D-01
  0.196200D+01  0.137977D+00
  0.444600D+00  0.478148D+00
  0.122000D+00  0.501240D+00
   s     1 1.00
  0.122000D+00  0.100000D+01
   p     1 1.00
  0.727000D+00  0.100000D+01
  
  9  0
   s     4 1.00
  0.130100D+02  0.196850D-01
  0.196200D+01  0.137977D+00
  0.444600D+00  0.478148D+00
  0.122000D+00  0.501240D+00
   s     1 1.00
  0.122000D+00  0.100000D+01
   p     1 1.00
  0.727000D+00  0.100000D+01
  
 10  0
   s     4 1.00
  0.130100D+02  0.196850D-01
  0.196200D+01  0.137977D+00
  0.444600D+00  0.478148D+00
  0.122000D+00  0.501240D+00
   s     1 1.00
  0.122000D+00  0.100000D+01
   p     1 1.00
  0.727000D+00  0.100000D+01
  
 11  0
   s     4 1.00
  0.130100D+02  0.196850D-01
  0.196200D+01  0.137977D+00
  0.444600D+00  0.478148D+00
  0.122000D+00  0.501240D+00
   s     1 1.00
  0.122000D+00  0.100000D+01
   p     1 1.00
  0.727000D+00  0.100000D+01
  
 12  0
   s     4 1.00
  0.130100D+02  0.196850D-01
  0.196200D+01  0.137977D+00
  0.444600D+00  0.478148D+00
  0.122000D+00  0.501240D+00
   s     1 1.00
  0.122000D+00  0.100000D+01
   p     1 1.00
  0.727000D+00  0.100000D+01
  
 13  0
   s     4 1.00
  0.130100D+02  0.196850D-01
  0.196200D+01  0.137977D+00
  0.444600D+00  0.478148D+00
  0.122000D+00  0.501240D+00
   s     1 1.00
  0.122000D+00  0.100000D+01
   p     1 1.00
  0.727000D+00  0.100000D+01
  
 14  0
   s     4 1.00
  0.130100D+02  0.196850D-01
  0.196200D+01  0.137977D+00
  0.444600D+00  0.478148D+00
  0.122000D+00  0.501240D+00
   s     1 1.00
  0.122000D+00  0.100000D+01
   p     1 1.00
  0.727000D+00  0.100000D+01
  
[MO]
 Sym= __1_A__
 Ene=   1.00000000000000     
 Spin= Alpha
 Occup=    1.00000000000000     
                     1  6.321324558094641E-005
                     2  0.997763779623253     
                     3  1.227540546853157E-002
                     4  2.164561000755691E-003
                     5  1.006536038684913E-003
                     6  1.811204442444298E-006
                     7 -1.303719510690572E-006
                     8  3.280064481333119E-003
                     9 -1.608203071241045E-007
                    10  1.223032098271544E-007
                    11 -2.841614582005923E-004
                    12 -3.107436745057226E-007
                    13  1.920610122579389E-007
                    14 -5.613732859936541E-004
                    15  1.525897815671024E-004
                    16  1.569556157770621E-007
                    17 -1.676497601879458E-007
                    18  4.213227551077334E-005
                    19  8.660366524758052E-005
                    20  4.374821832827422E-005
                    21  3.173263643327534E-008
                    22  2.973805593037208E-007
                    23 -2.960326233214180E-004
                    24 -4.242630711755893E-004
                    25 -1.702917515755051E-004
                    26  2.059387302330444E-007
                    27 -9.993864897598884E-008
                    28 -1.847417156906985E-005
                    29 -6.216310645965776E-005
                    30  4.254489425788280E-008
                    31 -3.321074703752429E-008
                    32 -1.942166330225878E-004
                    33  2.742292342191432E-003
                    34  8.888341203619172E-005
                    35 -5.561323144746168E-004
                    36 -3.605590568413156E-006
                    37  2.593605442985326E-006
                    38 -6.553612968878036E-003
                    39 -1.088753867418547E-007
                    40  3.055814757339813E-008
                    41 -2.194487787708912E-004
                    42  2.028769714214367E-006
                    43 -1.410613263952968E-006
                    44  3.711840133175949E-003
                    45  3.786593511666454E-004
                    46  3.029793307927098E-007
                    47 -2.830923022367723E-007
                    48  9.999797004135864E-005
                    49 -7.635856032101653E-006
                    50  6.701859577669801E-004
                    51  6.382298484549839E-007
                    52 -6.766900303753161E-007
                    53  6.645693454474860E-005
                    54  9.535018094710932E-005
                    55 -5.145781215273828E-005
                    56  2.106905877726129E-008
                    57 -6.740938107106807E-008
                    58  4.513816386083208E-005
                    59 -1.583734227866188E-005
                    60 -2.283373678595602E-008
                    61 -3.611971004319991E-008
                    62 -1.855372572643928E-004
                    63 -1.679285207649547E-003
                    64 -2.535835802652391E-006
                    65  8.063148552207757E-004
                    66  1.708754299332604E-005
                    67 -8.760727043149442E-004
                    68  1.197557605008793E-003
                    69  4.296832139440213E-005
                    70  1.122295126328021E-004
                    71  1.416698221541702E-004
                    72  4.403234633922384E-005
                    73 -5.869789114182435E-004
                    74 -3.135856092218978E-004
                    75  9.118887709468907E-005
                    76  2.789342698643359E-006
                    77 -1.299969553793616E-005
                    78  3.273812762187354E-005
                    79  1.396917369768828E-006
                    80  3.876966110446421E-005
                    81 -1.407236903355352E-005
                    82 -1.091195125931174E-005
                    83  1.268989256136463E-005
                    84  2.731166365232728E-005
                    85 -7.418112646138019E-005
                    86  6.635870829935230E-006
                    87 -6.155515928207025E-006
                    88  2.130920429463002E-005
                    89 -4.160858477728494E-006
                    90  2.755012407184895E-006
                    91  2.224248714232564E-005
                    92 -1.855009023142206E-004
                    93 -1.679139895971163E-003
                    94 -2.372613571703145E-006
                    95  8.058049024830267E-004
                    96 -1.577502076579906E-005
                    97  8.751511884801723E-004
                    98  1.198373331457890E-003
                    99 -4.278731936404406E-005
                   100 -1.124856428354803E-004
                   101  1.410207863271493E-004
                   102 -4.433379775865865E-005
                   103  5.866510850858768E-004
                   104 -3.129022674520547E-004
                   105  9.118030894184853E-005
                   106 -2.649646225661340E-006
                   107  1.286536054550720E-005
                   108  3.274684662910574E-005
                   109  1.412454121310755E-006
                   110  3.831553095857594E-005
                   111  1.417685081276685E-005
                   112  1.070816694151904E-005
                   113  1.262573913170069E-005
                   114  2.730898610918882E-005
                   115 -7.414162268016517E-005
                   116 -6.474227172730908E-006
                   117  5.997082672454284E-006
                   118  2.127550839290746E-005
                   119 -4.116182189703301E-006
                   120 -2.780158910582951E-006
                   121 -2.226732832655810E-005
                   122 -1.524300094160814E-004
                   123  2.635314187296072E-005
                   124  7.590664222621621E-005
                   125  2.633951526748091E-004
                   126 -7.352180503426591E-005
                   127  5.145633018758376E-005
                   128 -8.486767931992018E-004
                   129 -4.242322212359204E-006
                   130  2.368956998875638E-005
                   131  2.054304609639901E-004
                   132  1.650038595484138E-005
                   133 -4.068294639187582E-005
                   134  5.487102292733064E-004
                   135 -9.071262783079182E-007
                   136  1.562209805173748E-006
                   137  5.521108797647743E-006
                   138 -2.115902333285278E-006
                   139  1.442986866600394E-006
                   140 -1.262210009825444E-004
                   141 -1.266047871723977E-005
                   142  9.627340147162463E-005
                   143  3.623050054091854E-005
                   144 -4.769298571219109E-006
                   145 -2.429338612897911E-005
                   146 -1.801777123610902E-007
                   147 -5.028514711007660E-006
                   148 -8.339392113988010E-006
                   149 -1.387301937883349E-006
                   150 -1.035648185773886E-006
                   151 -2.383600338113830E-006
                   152 -1.529093846661411E-004
                   153  2.465068184007189E-005
                   154  7.540239788627210E-005
                   155  2.665060799972298E-004
                   156  7.257632818166818E-005
                   157 -5.072605747005917E-005
                   158 -8.487692501695327E-004
                   159  4.531399698970831E-006
                   160 -2.426018671099807E-005
                   161  2.050901819067680E-004
                   162 -1.595276542735874E-005
                   163  4.078385709198824E-005
                   164  5.489417165253008E-004
                   165 -8.583501849099004E-007
                   166 -1.563537059458549E-006
                   167 -5.529896331223004E-006
                   168 -2.176012828133236E-006
                   169  1.427530305120786E-006
                   170 -1.262590403895135E-004
                   171  1.238536117237585E-005
                   172 -9.639628202342535E-005
                   173  3.610832551778470E-005
                   174 -4.889138552513199E-006
                   175 -2.421283052927625E-005
                   176  2.634763264324521E-007
                   177  4.999925733857728E-006
                   178 -8.383741123805408E-006
                   179 -1.391059304920693E-006
                   180  1.049848191602510E-006
                   181  2.400623027068040E-006
                   182 -1.260174967041001E-004
                   183 -3.433600891675799E-004
                   184  2.369372428827342E-005
                   185  2.376471427182111E-004
                   186 -3.422775513650739E-008
                   187  1.101050386040633E-007
                   188 -4.235680681150728E-005
                   189  5.125684995403271E-008
                   190 -4.874414971333685E-007
                   191  9.819346550345610E-006
                   192 -1.732872582406118E-008
                   193 -3.488534844778018E-008
                   194 -4.511591479743741E-005
                   195  2.151971741006910E-005
                   196  1.458836009862826E-008
                   197  7.390373680208345E-009
                   198  7.512830373054022E-006
                   199  2.303883493529985E-006
                   200  2.803282411784183E-005
                   201 -4.029568294544934E-009
                   202  2.063632611112190E-007
                   203  2.324576738074012E-005
                   204  4.138554899885540E-007
                   205 -1.039999801843773E-005
                   206  1.422684891790149E-008
                   207 -1.986124607606140E-008
                   208  1.899454762672120E-006
                   209  1.618403442660933E-006
                   210  5.119015165690580E-009
                   211  2.927444092775898E-008
                   212  5.809766859909963E-003
                   213 -3.203792830847154E-003
                   214  5.575742239746124E-004
                   215  2.759553453146011E-004
                   216  4.192536160592486E-004
                   217  5.809738213175348E-003
                   218 -3.203781391742963E-003
                   219 -5.571099596739173E-004
                   220 -2.762865515897060E-004
                   221  4.196476089985039E-004
                   222 -6.686664633012905E-004
                   223 -1.904324396922296E-004
                   224  4.475625995878115E-006
                   225 -3.798414522457348E-005
                   226 -4.535907859716128E-005
                   227 -6.687318485649960E-004
                   228 -1.900562193687583E-004
                   229 -4.525134240608296E-006
                   230  3.800117326022754E-005
                   231 -4.535066737607553E-005
                   232 -2.663689803967622E-004
                   233 -2.327690936813032E-004
                   234 -2.600776593487619E-006
                   235 -1.393250562004758E-005
                   236 -1.828725024306082E-006
                   237 -2.664129037106747E-004
                   238 -2.329215676997720E-004
                   239  2.593452416830648E-006
                   240  1.398050303713106E-005
                   241 -1.769916385296722E-006
                   242  1.101168365753480E-004
                   243 -2.542010723745811E-005
                   244  8.422204163915278E-009
                   245 -2.894611235982454E-008
                   246  1.347511152501498E-005
 Sym= __2_A__
 Ene=   2.00000000000000     
 Spin= Alpha
 Occup=    1.00000000000000     
                     1 -1.341507977533935E-005
                     2 -7.082595472626983E-005
                     3  1.894498875195088E-003
                     4  2.856868093900326E-005
                     5  1.117064943620795E-003
                     6  1.107529908642460E-006
                     7 -7.947003971872104E-007
                     8  2.029658384246887E-003
                     9 -5.827744831625351E-008
                    10  4.165358890162130E-008
                    11 -1.117542263314031E-004
                    12 -3.264216557074084E-009
                    13  8.740290529377600E-009
                    14 -1.186726522210033E-005
                    15  5.866385832345434E-005
                    16  4.064932292084954E-008
                    17 -3.364202004197607E-008
                    18  1.277187923563362E-005
                    19 -1.970988489380059E-005
                    20 -8.326736168325197E-005
                    21 -1.846939541297021E-008
                    22  3.046461042209295E-008
                    23 -4.677861474883282E-005
                    24  8.320014714529316E-005
                    25  1.924854643282908E-004
                    26 -2.279448089585497E-007
                    27  2.348925075752690E-007
                    28 -5.069910105530364E-005
                    29 -2.269782641100978E-005
                    30  4.512487536514174E-008
                    31  9.497196862702413E-009
                    32   1.00100096639967     
                    33  8.910164251528322E-003
                    34  2.645462975037137E-003
                    35 -8.040273652186019E-003
                    36 -1.697501972391726E-006
                    37  1.207261600929297E-006
                    38 -3.088645905479075E-003
                    39  7.265464312064255E-007
                    40 -5.146902388844268E-007
                    41  1.324945351169088E-003
                    42  1.978481029448842E-006
                    43 -1.476924708999790E-006
                    44  3.587582507053992E-003
                    45  2.606736941446071E-004
                    46  4.656264312722525E-007
                    47 -1.841025321065575E-008
                    48 -4.016659844112094E-004
                    49 -7.491133074227026E-006
                    50  4.145701675802555E-004
                    51 -6.973057379609926E-008
                    52 -6.400314617047679E-007
                    53  8.833698863592638E-004
                    54  4.953694274564948E-005
                    55  2.867235873349332E-004
                    56 -2.303439263773258E-007
                    57  3.870933311563717E-007
                    58 -1.789520449840274E-004
                    59  1.106751071042740E-006
                    60  1.200806598845533E-007
                    61  8.863909263622194E-008
                    62  1.309498666997392E-002
                    63 -1.795020350349350E-003
                    64 -2.843385707651648E-004
                    65  2.976528941394174E-003
                    66 -7.046551885752731E-006
                    67  2.544310028877880E-004
                    68 -1.171713621306028E-004
                    69 -2.439914802068858E-005
                    70  4.891945820603374E-004
                    71  5.037865153011827E-005
                    72  1.155045031415948E-004
                    73 -1.856563741453146E-003
                    74  1.288566654629415E-004
                    75 -2.555083052096545E-005
                    76  1.800622772133312E-006
                    77  2.304889756245719E-005
                    78  2.325912478641284E-005
                    79  1.913897474684764E-006
                    80  8.200072238866407E-004
                    81  4.453110363361371E-005
                    82 -4.853672060579185E-004
                    83 -2.361990504409448E-006
                    84 -1.405934169119001E-005
                    85  4.747869216609359E-005
                    86  1.182978909146545E-006
                    87  3.195014966936453E-005
                    88 -1.037804689369645E-004
                    89 -4.363665194476895E-006
                    90  7.125042488461527E-006
                    91  5.455264090517426E-005
                    92  1.309495837415370E-002
                    93 -1.795098676694152E-003
                    94 -2.843858239911190E-004
                    95  2.976727395537600E-003
                    96  6.918312252043347E-006
                    97 -2.543407692863353E-004
                    98 -1.174064014161862E-004
                    99  2.444889561462902E-005
                   100 -4.892242735062830E-004
                   101  5.011595050200041E-005
                   102 -1.153738056772811E-004
                   103  1.856609518162250E-003
                   104  1.302903536737896E-004
                   105 -2.556481554011249E-005
                   106 -1.873812627067391E-006
                   107 -2.304071464943699E-005
                   108  2.323764608090006E-005
                   109  1.890338081808440E-006
                   110  8.208332964844182E-004
                   111 -4.298414054935290E-005
                   112  4.843158711401510E-004
                   113 -2.006551276833024E-006
                   114 -1.349103462278055E-005
                   115  4.752040183665154E-005
                   116 -1.136974467150747E-006
                   117 -3.172111569110245E-005
                   118 -1.038817323285146E-004
                   119 -4.350574198268078E-006
                   120 -6.980775456263871E-006
                   121 -5.445791939873165E-005
                   122 -1.237858966778835E-004
                   123 -7.546111295761541E-004
                   124  2.315154550756482E-004
                   125 -2.162726184546762E-004
                   126 -1.064779714867769E-005
                   127 -4.885402902106844E-005
                   128 -1.853090040685328E-004
                   129  2.747820021561347E-005
                   130  5.997791389218964E-005
                   131  5.645482176591272E-004
                   132 -1.636120668429775E-005
                   133  3.311312995966032E-004
                   134  6.147665242527308E-004
                   135 -2.443199161041114E-005
                   136 -4.744769525243271E-006
                   137  4.878721265380010E-005
                   138  1.616422525666854E-005
                   139  5.967004604158587E-006
                   140 -3.111769708983052E-004
                   141 -8.194781143166354E-006
                   142 -2.839475797310656E-004
                   143 -3.330566891504944E-005
                   144 -3.296177753357787E-005
                   145 -8.186460857897887E-006
                   146  6.561079167508159E-006
                   147 -2.204231943193957E-005
                   148 -2.474582787722958E-005
                   149 -5.199015886364173E-006
                   150 -8.299158010589812E-008
                   151 -8.024465845575900E-006
                   152 -1.234992424729189E-004
                   153 -7.536625201810423E-004
                   154  2.316074529323745E-004
                   155 -2.173745600292005E-004
                   156  1.044648292001916E-005
                   157  4.898562569128577E-005
                   158 -1.852862406029134E-004
                   159 -2.687064011068270E-005
                   160 -6.034467173014585E-005