[Molden Format]
[Atoms] AU
  N     1    7    -0.0005000500    0.0009412100   -4.3878167000        
  C     2    6    -0.0019986000   -0.0015163600   -1.7302480300        
  C     3    6     0.1432949500   -2.3153455500   -0.4122954500        
  C     4    6    -0.1487808000    2.3098715000   -0.4081830000        
  C     5    6     0.2109642200   -2.2891922700    2.1834936800        
  C     6    6    -0.2193774000    2.2789174700    2.1874753400        
  C     7    6    -0.0049362600   -0.0063340400    3.4794990900        
  H     8    1    -1.6100745600   -0.4563597000   -5.4026014200        
  H     9    1     1.6102173600    0.4601164900   -5.3999380600        
  H    10    1     0.2638132800   -4.0383599800   -1.4594390900        
  H    11    1    -0.2681199300    4.0348197900   -1.4522734200        
  H    12    1     0.4006368800   -4.0211578100    3.2152500700        
  H    13    1    -0.4102153000    4.0089720200    3.2222186500        
  H    14    1    -0.0060802500   -0.0082101600    5.5083080200        
[5D]
[7F]
[GTO]
  1  0
   s    12 1.00
  0.114200D+05  0.172695D-04
  0.171200D+04  0.134411D-03
  0.389300D+03  0.694561D-03
  0.110000D+03  0.278531D-02
  0.355700D+02  0.863457D-02
  0.125400D+02  0.199805D-01
  0.464400D+01  0.262908D-01
  0.129300D+01 -0.243845D-01
  0.511800D+00 -0.924934D-01
  0.178700D+00 -0.339683D+00
  0.246240D-01  0.345111D+00
  0.112530D-01  0.752750D+00
   s    10 1.00
  0.114200D+05  0.523000D-03
  0.171200D+04  0.404500D-02
  0.389300D+03  0.207750D-01
  0.110000D+03  0.807269D-01
  0.355700D+02  0.233074D+00
  0.125400D+02  0.433501D+00
  0.464400D+01  0.347472D+00
  0.129300D+01  0.412620D-01
  0.511800D+00 -0.850799D-02
  0.178700D+00  0.238400D-02
   s    10 1.00
  0.114200D+05 -0.115000D-03
  0.171200D+04 -0.895000D-03
  0.389300D+03 -0.462400D-02
  0.110000D+03 -0.185280D-01
  0.355700D+02 -0.573390D-01
  0.125400D+02 -0.132076D+00
  0.464400D+01 -0.172510D+00
  0.129300D+01  0.151814D+00
  0.511800D+00  0.599944D+00
  0.178700D+00  0.387462D+00
   s     1 1.00
  0.129300D+01  0.100000D+01
   s     1 1.00
  0.178700D+00  0.100000D+01
   p     5 1.00
  0.266300D+02  0.146700D-01
  0.594800D+01  0.917640D-01
  0.174200D+01  0.298683D+00
  0.555000D+00  0.498487D+00
  0.172500D+00  0.337023D+00
   p     1 1.00
  0.174200D+01  0.100000D+01
   p     1 1.00
  0.555000D+00  0.100000D+01
   d     1 1.00
  0.165400D+01  0.100000D+01
   d     1 1.00
  0.469000D+00  0.100000D+01
   f     1 1.00
  0.109300D+01  0.100000D+01
  
  2  0
   s    10 1.00
  0.823600D+04  0.531000D-03
  0.123500D+04  0.410800D-02
  0.280800D+03  0.210870D-01
  0.792700D+02  0.818530D-01
  0.255900D+02  0.234817D+00
  0.899700D+01  0.434401D+00
  0.331900D+01  0.346129D+00
  0.905900D+00  0.393780D-01
  0.364300D+00 -0.898300D-02
  0.128500D+00  0.238500D-02
   s    10 1.00
  0.823600D+04 -0.113000D-03
  0.123500D+04 -0.878000D-03
  0.280800D+03 -0.454000D-02
  0.792700D+02 -0.181330D-01
  0.255900D+02 -0.557600D-01
  0.899700D+01 -0.126895D+00
  0.331900D+01 -0.170352D+00
  0.905900D+00  0.140382D+00
  0.364300D+00  0.598684D+00
  0.128500D+00  0.395389D+00
   s     1 1.00
  0.905900D+00  0.100000D+01
   s     1 1.00
  0.364300D+00  0.100000D+01
   p     5 1.00
  0.187100D+02  0.140310D-01
  0.413300D+01  0.868660D-01
  0.120000D+01  0.290216D+00
  0.382700D+00  0.501008D+00
  0.120900D+00  0.343406D+00
   p     1 1.00
  0.382700D+00  0.100000D+01
   p     1 1.00
  0.120900D+00  0.100000D+01
   d     1 1.00
  0.109700D+01  0.100000D+01
   d     1 1.00
  0.318000D+00  0.100000D+01
   f     1 1.00
  0.761000D+00  0.100000D+01
  
  3  0
   s    10 1.00
  0.823600D+04  0.531000D-03
  0.123500D+04  0.410800D-02
  0.280800D+03  0.210870D-01
  0.792700D+02  0.818530D-01
  0.255900D+02  0.234817D+00
  0.899700D+01  0.434401D+00
  0.331900D+01  0.346129D+00
  0.905900D+00  0.393780D-01
  0.364300D+00 -0.898300D-02
  0.128500D+00  0.238500D-02
   s    10 1.00
  0.823600D+04 -0.113000D-03
  0.123500D+04 -0.878000D-03
  0.280800D+03 -0.454000D-02
  0.792700D+02 -0.181330D-01
  0.255900D+02 -0.557600D-01
  0.899700D+01 -0.126895D+00
  0.331900D+01 -0.170352D+00
  0.905900D+00  0.140382D+00
  0.364300D+00  0.598684D+00
  0.128500D+00  0.395389D+00
   s     1 1.00
  0.905900D+00  0.100000D+01
   s     1 1.00
  0.364300D+00  0.100000D+01
   p     5 1.00
  0.187100D+02  0.140310D-01
  0.413300D+01  0.868660D-01
  0.120000D+01  0.290216D+00
  0.382700D+00  0.501008D+00
  0.120900D+00  0.343406D+00
   p     1 1.00
  0.382700D+00  0.100000D+01
   p     1 1.00
  0.120900D+00  0.100000D+01
   d     1 1.00
  0.109700D+01  0.100000D+01
   d     1 1.00
  0.318000D+00  0.100000D+01
   f     1 1.00
  0.761000D+00  0.100000D+01
  
  4  0
   s    10 1.00
  0.823600D+04  0.531000D-03
  0.123500D+04  0.410800D-02
  0.280800D+03  0.210870D-01
  0.792700D+02  0.818530D-01
  0.255900D+02  0.234817D+00
  0.899700D+01  0.434401D+00
  0.331900D+01  0.346129D+00
  0.905900D+00  0.393780D-01
  0.364300D+00 -0.898300D-02
  0.128500D+00  0.238500D-02
   s    10 1.00
  0.823600D+04 -0.113000D-03
  0.123500D+04 -0.878000D-03
  0.280800D+03 -0.454000D-02
  0.792700D+02 -0.181330D-01
  0.255900D+02 -0.557600D-01
  0.899700D+01 -0.126895D+00
  0.331900D+01 -0.170352D+00
  0.905900D+00  0.140382D+00
  0.364300D+00  0.598684D+00
  0.128500D+00  0.395389D+00
   s     1 1.00
  0.905900D+00  0.100000D+01
   s     1 1.00
  0.364300D+00  0.100000D+01
   p     5 1.00
  0.187100D+02  0.140310D-01
  0.413300D+01  0.868660D-01
  0.120000D+01  0.290216D+00
  0.382700D+00  0.501008D+00
  0.120900D+00  0.343406D+00
   p     1 1.00
  0.382700D+00  0.100000D+01
   p     1 1.00
  0.120900D+00  0.100000D+01
   d     1 1.00
  0.109700D+01  0.100000D+01
   d     1 1.00
  0.318000D+00  0.100000D+01
   f     1 1.00
  0.761000D+00  0.100000D+01
  
  5  0
   s    10 1.00
  0.823600D+04  0.531000D-03
  0.123500D+04  0.410800D-02
  0.280800D+03  0.210870D-01
  0.792700D+02  0.818530D-01
  0.255900D+02  0.234817D+00
  0.899700D+01  0.434401D+00
  0.331900D+01  0.346129D+00
  0.905900D+00  0.393780D-01
  0.364300D+00 -0.898300D-02
  0.128500D+00  0.238500D-02
   s    10 1.00
  0.823600D+04 -0.113000D-03
  0.123500D+04 -0.878000D-03
  0.280800D+03 -0.454000D-02
  0.792700D+02 -0.181330D-01
  0.255900D+02 -0.557600D-01
  0.899700D+01 -0.126895D+00
  0.331900D+01 -0.170352D+00
  0.905900D+00  0.140382D+00
  0.364300D+00  0.598684D+00
  0.128500D+00  0.395389D+00
   s     1 1.00
  0.905900D+00  0.100000D+01
   s     1 1.00
  0.364300D+00  0.100000D+01
   p     5 1.00
  0.187100D+02  0.140310D-01
  0.413300D+01  0.868660D-01
  0.120000D+01  0.290216D+00
  0.382700D+00  0.501008D+00
  0.120900D+00  0.343406D+00
   p     1 1.00
  0.382700D+00  0.100000D+01
   p     1 1.00
  0.120900D+00  0.100000D+01
   d     1 1.00
  0.109700D+01  0.100000D+01
   d     1 1.00
  0.318000D+00  0.100000D+01
   f     1 1.00
  0.761000D+00  0.100000D+01
  
  6  0
   s    10 1.00
  0.823600D+04  0.531000D-03
  0.123500D+04  0.410800D-02
  0.280800D+03  0.210870D-01
  0.792700D+02  0.818530D-01
  0.255900D+02  0.234817D+00
  0.899700D+01  0.434401D+00
  0.331900D+01  0.346129D+00
  0.905900D+00  0.393780D-01
  0.364300D+00 -0.898300D-02
  0.128500D+00  0.238500D-02
   s    10 1.00
  0.823600D+04 -0.113000D-03
  0.123500D+04 -0.878000D-03
  0.280800D+03 -0.454000D-02
  0.792700D+02 -0.181330D-01
  0.255900D+02 -0.557600D-01
  0.899700D+01 -0.126895D+00
  0.331900D+01 -0.170352D+00
  0.905900D+00  0.140382D+00
  0.364300D+00  0.598684D+00
  0.128500D+00  0.395389D+00
   s     1 1.00
  0.905900D+00  0.100000D+01
   s     1 1.00
  0.364300D+00  0.100000D+01
   p     5 1.00
  0.187100D+02  0.140310D-01
  0.413300D+01  0.868660D-01
  0.120000D+01  0.290216D+00
  0.382700D+00  0.501008D+00
  0.120900D+00  0.343406D+00
   p     1 1.00
  0.382700D+00  0.100000D+01
   p     1 1.00
  0.120900D+00  0.100000D+01
   d     1 1.00
  0.109700D+01  0.100000D+01
   d     1 1.00
  0.318000D+00  0.100000D+01
   f     1 1.00
  0.761000D+00  0.100000D+01
  
  7  0
   s    10 1.00
  0.823600D+04  0.531000D-03
  0.123500D+04  0.410800D-02
  0.280800D+03  0.210870D-01
  0.792700D+02  0.818530D-01
  0.255900D+02  0.234817D+00
  0.899700D+01  0.434401D+00
  0.331900D+01  0.346129D+00
  0.905900D+00  0.393780D-01
  0.364300D+00 -0.898300D-02
  0.128500D+00  0.238500D-02
   s    10 1.00
  0.823600D+04 -0.113000D-03
  0.123500D+04 -0.878000D-03
  0.280800D+03 -0.454000D-02
  0.792700D+02 -0.181330D-01
  0.255900D+02 -0.557600D-01
  0.899700D+01 -0.126895D+00
  0.331900D+01 -0.170352D+00
  0.905900D+00  0.140382D+00
  0.364300D+00  0.598684D+00
  0.128500D+00  0.395389D+00
   s     1 1.00
  0.905900D+00  0.100000D+01
   s     1 1.00
  0.364300D+00  0.100000D+01
   p     5 1.00
  0.187100D+02  0.140310D-01
  0.413300D+01  0.868660D-01
  0.120000D+01  0.290216D+00
  0.382700D+00  0.501008D+00
  0.120900D+00  0.343406D+00
   p     1 1.00
  0.382700D+00  0.100000D+01
   p     1 1.00
  0.120900D+00  0.100000D+01
   d     1 1.00
  0.109700D+01  0.100000D+01
   d     1 1.00
  0.318000D+00  0.100000D+01
   f     1 1.00
  0.761000D+00  0.100000D+01
  
  8  0
   s     4 1.00
  0.130100D+02  0.196850D-01
  0.196200D+01  0.137977D+00
  0.444600D+00  0.478148D+00
  0.122000D+00  0.501240D+00
   s     1 1.00
  0.122000D+00  0.100000D+01
   p     1 1.00
  0.727000D+00  0.100000D+01
  
  9  0
   s     4 1.00
  0.130100D+02  0.196850D-01
  0.196200D+01  0.137977D+00
  0.444600D+00  0.478148D+00
  0.122000D+00  0.501240D+00
   s     1 1.00
  0.122000D+00  0.100000D+01
   p     1 1.00
  0.727000D+00  0.100000D+01
  
 10  0
   s     4 1.00
  0.130100D+02  0.196850D-01
  0.196200D+01  0.137977D+00
  0.444600D+00  0.478148D+00
  0.122000D+00  0.501240D+00
   s     1 1.00
  0.122000D+00  0.100000D+01
   p     1 1.00
  0.727000D+00  0.100000D+01
  
 11  0
   s     4 1.00
  0.130100D+02  0.196850D-01
  0.196200D+01  0.137977D+00
  0.444600D+00  0.478148D+00
  0.122000D+00  0.501240D+00
   s     1 1.00
  0.122000D+00  0.100000D+01
   p     1 1.00
  0.727000D+00  0.100000D+01
  
 12  0
   s     4 1.00
  0.130100D+02  0.196850D-01
  0.196200D+01  0.137977D+00
  0.444600D+00  0.478148D+00
  0.122000D+00  0.501240D+00
   s     1 1.00
  0.122000D+00  0.100000D+01
   p     1 1.00
  0.727000D+00  0.100000D+01
  
 13  0
   s     4 1.00
  0.130100D+02  0.196850D-01
  0.196200D+01  0.137977D+00
  0.444600D+00  0.478148D+00
  0.122000D+00  0.501240D+00
   s     1 1.00
  0.122000D+00  0.100000D+01
   p     1 1.00
  0.727000D+00  0.100000D+01
  
 14  0
   s     4 1.00
  0.130100D+02  0.196850D-01
  0.196200D+01  0.137977D+00
  0.444600D+00  0.478148D+00
  0.122000D+00  0.501240D+00
   s     1 1.00
  0.122000D+00  0.100000D+01
   p     1 1.00
  0.727000D+00  0.100000D+01
  
[MO]
 Sym= __1_A__
 Ene=  0.000000000000000E+000
 Spin= Alpha
 Occup=    2.00000000000000     
                     1  7.897044753880975E-005
                     2  0.997676955816145     
                     3  1.321812371761267E-002
                     4  2.191773981227793E-003
                     5  8.650928390343305E-004
                     6 -1.718647069942513E-006
                     7 -2.845469865456709E-006
                     8  3.060260442531921E-003
                     9  1.874568301385071E-007
                    10  3.245717072697044E-007
                    11 -3.387817855615501E-004
                    12  3.731757920164157E-007
                    13  5.871361322142812E-007
                    14 -6.646725121759548E-004
                    15  1.266608083809753E-004
                    16 -2.420541159842475E-008
                    17 -2.387706323854362E-007
                    18  7.602147726117554E-005
                    19  6.055552808848986E-005
                    20  2.561257582614896E-005
                    21 -5.478222119482308E-007
                    22  2.060506521096802E-007
                    23 -4.605335082780628E-004
                    24 -2.806926179253166E-004
                    25 -1.679108635190133E-004
                    26 -3.390699946896141E-007
                    27 -3.529100102418773E-007
                    28 -4.677919086957674E-005
                    29 -4.431314746132374E-005
                    30  1.783326437255717E-008
                    31  8.326473148545745E-008
                    32 -1.731249708863343E-004
                    33  2.769238828912552E-003
                    34  8.233074996387259E-005
                    35 -6.158536802716662E-004
                    36  3.667156449157324E-006
                    37  6.040988294695923E-006
                    38 -6.512354946526788E-003
                    39  1.848345026137887E-007
                    40  2.269216759494838E-007
                    41 -3.068056578055387E-004
                    42 -2.033000151098267E-006
                    43 -3.281150659827110E-006
                    44  3.591952256548779E-003
                    45  3.843126177500342E-004
                    46 -3.219536373643126E-007
                    47 -6.920278921180496E-007
                    48  9.331487489627520E-005
                    49  6.320126350052422E-007
                    50  7.797560119475217E-004
                    51 -6.170931401865561E-007
                    52 -1.494550248987007E-006
                    53  1.515930107419056E-004
                    54  5.979343650763403E-005
                    55 -3.746594415621978E-005
                    56 -2.485434612876149E-008
                    57 -1.475933709280521E-007
                    58  3.724161386350298E-005
                    59 -4.876587371048930E-006
                    60  3.107446799439751E-008
                    61 -4.232488665933092E-008
                    62 -1.861843705586069E-004
                    63 -1.699028277085870E-003
                    64 -7.599936631898402E-006
                    65  8.467634415064631E-004
                    66  5.594381907265227E-005
                    67 -8.830669181636240E-004
                    68  1.236699875837193E-003
                    69  1.708067428451940E-005
                    70  1.333837696446658E-004
                    71  5.039747668575312E-005
                    72  4.744545568903319E-005
                    73 -5.900004996981164E-004
                    74 -3.509721914679223E-004
                    75  9.265607539263070E-005
                    76  2.341730251922477E-006
                    77 -1.262453886828644E-005
                    78  3.186229030609444E-005
                    79  3.324566967361697E-006
                    80  3.814168324248708E-005
                    81 -3.548276868949365E-006
                    82 -5.434231085667462E-005
                    83  2.075967259752720E-005
                    84  1.628937780704243E-005
                    85 -6.951369283031827E-005
                    86  4.249501233125298E-006
                    87 -1.532999964700909E-006
                    88  2.060240288044722E-005
                    89 -5.610183137595019E-007
                    90  4.442259125105786E-006
                    91  2.379714136706013E-005
                    92 -1.861487344966591E-004
                    93 -1.698886176089252E-003
                    94 -7.439972225264526E-006
                    95  8.462631328762982E-004
                    96 -5.734301966570489E-005
                    97  8.807980768279670E-004
                    98  1.238375536701625E-003
                    99 -1.711211386930175E-005
                   100 -1.336200568842879E-004
                   101  4.953149491423857E-005
                   102 -4.700461756041835E-005
                   103  5.900811835741141E-004
                   104 -3.497730855323242E-004
                   105  9.266045738706899E-005
                   106 -2.480195148021944E-006
                   107  1.228899148237964E-005
                   108  3.188947180262060E-005
                   109  3.314289496298495E-006
                   110  3.788752332768485E-005
                   111  3.549686672631871E-006
                   112  5.409256396502535E-005
                   113  2.076912377773048E-005
                   114  1.621573797294085E-005
                   115 -6.944021283080016E-005
                   116 -4.403068561554918E-006
                   117  1.160228439288596E-006
                   118  2.056180070501940E-005
                   119 -5.950744147036487E-007
                   120 -4.412900137731997E-006
                   121 -2.384156905837043E-005
                   122 -1.559105710836185E-004
                   123  2.203151619095025E-005
                   124  6.707034674173649E-005
                   125  3.074821342937865E-004
                   126 -5.607519166016959E-005
                   127  5.667013431929864E-005
                   128 -8.573890453617694E-004
                   129 -4.198088103167395E-006
                   130  2.604967306253769E-005
                   131  1.680848162796418E-004
                   132  9.429204519156291E-006
                   133 -1.715942459253355E-005
                   134  5.243102647351162E-004
                   135  3.134045643391502E-006
                   136  6.038211775094540E-007
                   137  6.599954869211662E-006
                   138 -2.928250143774062E-006
                   139  6.952817648831458E-007
                   140 -1.131295823654532E-004
                   141 -9.770049583198376E-006
                   142  7.920382227104996E-005
                   143  4.104724600584614E-005
                   144  2.324810810052116E-008
                   145 -2.125886398310132E-005
                   146  3.576679971085451E-007
                   147 -6.368404153585366E-006
                   148 -8.361894395025920E-006
                   149 -1.370637342487686E-006
                   150 -1.078346402341465E-006
                   151 -2.329808398524215E-006
                   152 -1.563811059175872E-004
                   153  2.035994755645807E-005
                   154  6.657586072367384E-005
                   155  3.105310256037941E-004
                   156  5.703002205701391E-005
                   157 -5.502232064804760E-005
                   158 -8.574005178060628E-004
                   159  4.070611565651556E-006
                   160 -2.675884470086556E-005
                   161  1.677253872001955E-004
                   162 -1.007679676613369E-005
                   163  1.671413109620387E-005
                   164  5.244969216377008E-004
                   165  3.164005230479534E-006
                   166 -6.143266087390865E-007
                   167 -6.613337768984692E-006
                   168 -2.992307343496844E-006
                   169  6.927752847753945E-007
                   170 -1.132470730524823E-004
                   171  1.005043819738905E-005
                   172 -7.917919534579390E-005
                   173  4.083178352533264E-005
                   174  8.793403811840601E-008
                   175 -2.119841050092658E-005
                   176 -4.311366753948729E-007
                   177  6.299393068635314E-006
                   178 -8.392077275086920E-006
                   179 -1.385676240753991E-006
                   180  1.072077920477803E-006
                   181  2.361126596322561E-006
                   182 -1.275433754509891E-004
                   183 -3.475329526439904E-004
                   184  2.178878939315816E-005
                   185  2.607695278567907E-004
                   186  1.341783410146185E-008
                   187  1.317343943290814E-007
                   188 -4.374352356307049E-005
                   189  4.224800582553143E-008
                   190 -4.800251965395856E-007
                   191  1.129210624975877E-005
                   192  5.011715326109536E-008
                   193  2.703073782119836E-008
                   194 -7.797716060814357E-005
                   195  2.165992011200455E-005
                   196 -1.793551823087500E-008
                   197 -1.459513352201254E-008
                   198  7.087950289222170E-006
                   199  2.170362214300882E-006
                   200  2.239665743365292E-005
                   201 -3.023628839101469E-008
                   202  1.766598249943968E-007
                   203  1.803048580722433E-005
                   204  1.635838754365280E-006
                   205 -9.978107646394570E-006
                   206 -1.012584755817199E-008
                   207 -3.057786880561406E-008
                   208  1.292921183483887E-006
                   209  1.120415986151000E-006
                   210  7.567755739361186E-009
                   211  2.604856034052538E-008
                   212  6.388355928259349E-003
                   213 -3.454170669885805E-003
                   214  6.409382756557066E-004
                   215  1.759974236611950E-004
                   216  4.371237291460101E-004
                   217  6.388339126444561E-003
                   218 -3.454164704133400E-003
                   219 -6.414285140225413E-004
                   220 -1.768078768804306E-004
                   221  4.360736750947774E-004
                   222 -6.647609938600239E-004
                   223 -2.030121091220155E-004
                   224  4.011510395873362E-006
                   225 -3.953321369464620E-005
                   226 -4.843010717853017E-005
                   227 -6.648246119503762E-004
                   228 -2.026435418289885E-004
                   229 -3.956306853189981E-006
                   230  3.960442965232585E-005
                   231 -4.838746147843189E-005
                   232 -2.733572156354559E-004
                   233 -2.007476957721279E-004
                   234 -1.062322512226977E-006
                   235 -1.574429538750781E-005
                   236 -4.140551796169504E-006
                   237 -2.734011436025181E-004
                   238 -2.008946755326186E-004
                   239  1.061545966749022E-006
                   240  1.579763633193620E-005
                   241 -4.060712892968028E-006
                   242  1.168433504170688E-004
                   243  2.228582084376318E-006
                   244 -6.571742575721695E-009
                   245 -3.609399082765072E-008
                   246  1.409753948649469E-005
 Sym= __2_A__
 Ene=  0.000000000000000E+000
 Spin= Alpha
 Occup=    2.00000000000000     
                     1 -5.818878054826025E-006
                     2 -5.113553576666213E-005
                     3  1.758261209381849E-003
                     4  1.360936478988818E-005
                     5  1.072611647174025E-003
                     6 -1.014102659584054E-006
                     7 -1.650848040686261E-006
                     8  1.789699552416072E-003
                     9  7.084089887971327E-008
                    10  1.100121461918104E-007
                    11 -1.220654289337786E-004
                    12 -3.687479737826846E-008
                    13 -6.006341507348404E-008
                    14  6.886181489473751E-005
                    15  6.095820855415125E-005
                    16 -6.562156286136320E-008
                    17 -1.097141390211118E-007
                    18  7.116215005793414E-006
                    19 -1.059208626889388E-005
                    20 -4.844019937087267E-005
                    21  7.346113822943352E-008
                    22  1.198303266665817E-007
                    23 -2.072271169911850E-005
                    24  3.902373549608259E-005
                    25  1.878708345158575E-004
                    26  1.887385777894872E-007
                    27  4.871393756089935E-007
                    28 -5.341434377476716E-005
                    29 -1.662365015508819E-005
                    30 -1.783631570503349E-008
                    31  7.236472832486180E-008
                    32   1.00100371707021     
                    33  8.807360253989257E-003
                    34  2.621004223432241E-003
                    35 -8.084108187065054E-003
                    36  1.560771184949519E-006
                    37  2.555440575338992E-006
                    38 -2.769303762506240E-003
                    39 -7.299234065213569E-007
                    40 -1.189717055945122E-006
                    41  1.292649695100314E-003
                    42 -1.881553153512930E-006
                    43 -3.162207236132634E-006
                    44  3.349575396757916E-003
                    45  2.213815311047128E-004
                    46 -4.657628475088614E-007
                    47 -1.373403785813191E-008
                    48 -3.908944742567110E-004
                    49 -3.140646097165265E-005
                    50  3.798035560505254E-004
                    51  2.017647222292361E-007
                    52 -1.337262401587543E-006
                    53  8.627329771958104E-004
                    54  9.219756111788256E-005
                    55  2.638804139001316E-004
                    56  1.996848039259562E-007
                    57  8.388873669638922E-007
                    58 -1.696106296743336E-004
                    59 -8.895129534445706E-006
                    60 -1.067678442233196E-007
                    61  1.999473862151693E-007
                    62  1.393221978225477E-002
                    63 -1.720703484020668E-003
                    64 -2.899476536330053E-004
                    65  2.953903073848276E-003
                    66 -1.453000555346531E-005
                    67  2.883767531400156E-004
                    68 -1.497432352467883E-004
                    69 -2.708866645476015E-005
                    70  4.835681979157227E-004
                    71  5.200286767839781E-005
                    72  1.342287812891124E-004
                    73 -1.796311298373183E-003
                    74  1.594383327227583E-004
                    75 -2.838797011657306E-005
                    76  1.034946637659516E-006
                    77  2.098619911990993E-005
                    78  1.912555733971909E-005
                    79  1.580675968690090E-006
                    80  8.139681074321006E-004
                    81  4.565634247090940E-005
                    82 -4.810434350103520E-004
                    83 -1.142413966284408E-005
                    84 -9.750664667679155E-006
                    85  4.286431575932171E-005
                    86  8.467405102508823E-007
                    87  2.685582346316261E-005
                    88 -9.986058638858342E-005
                    89 -8.923378056800986E-006
                    90  9.422602552277222E-006
                    91  5.331879372889445E-005
                    92  1.393219951035759E-002
                    93 -1.720778705197771E-003
                    94 -2.899941382971588E-004
                    95  2.954096204332861E-003
                    96  1.469960086239726E-005
                    97 -2.881013324057967E-004
                    98 -1.502870853590050E-004
                    99  2.702537943297415E-005
                   100 -4.836527766167778E-004
                   101  5.128639922589489E-005
                   102 -1.344225250589493E-004
                   103  1.796159107851436E-003
                   104  1.624628435024561E-004
                   105 -2.844361361172827E-005
                   106 -9.551958094394768E-007
                   107 -2.093466576825448E-005
                   108  1.908662154610786E-005
                   109  1.606353771352153E-006
                   110  8.154979423206718E-004
                   111 -4.728471053055834E-005
                   112  4.784894873056169E-004
                   113 -1.046230516879706E-005
                   114 -1.020376123971932E-005
                   115  4.297102976285338E-005
                   116 -9.335145352257989E-007
                   117 -2.638411257869757E-005
                   118 -1.000421166803698E-004
                   119 -8.967856622411686E-006
                   120 -9.540130361046624E-006
                   121 -5.307948455400121E-005
                   122 -9.882163386062163E-005
                   123 -7.583550740055903E-004
                   124  2.328763202922180E-004
                   125 -2.311633545215636E-004
                   126 -4.907149395959652E-006
                   127 -4.932794725696738E-005
                   128 -1.656949638222753E-004
                   129  2.099443141671659E-005
                   130  5.791092081974826E-005
                   131  5.707487471736518E-004
                   132 -2.239318106916741E-005
                   133  3.306059919001761E-004
                   134  5.872107873589308E-004
                   135 -2.641782194458860E-005
                   136 -4.898571530062443E-006
                   137  4.647627965830000E-005
                   138  1.632304166984836E-005
                   139  5.713234972197031E-006
                   140 -3.075335006589435E-004
                   141 -3.928258866671490E-007
                   142 -2.803899076608015E-004
                   143 -3.304575060743794E-005
                   144 -2.871522061729458E-005
                   145 -9.446212305677559E-006
                   146  5.577134941699941E-006
                   147 -1.947617147879002E-005
                   148 -2.430863483746450E-005
                   149 -5.205313355528101E-006
                   150 -6.523209892392409E-007
                   151 -7.408778328403702E-006
                   152 -9.854679666448755E-005
                   153 -7.574464247459741E-004
                   154  2.329696591962570E-004
                   155 -2.322356148696688E-004
                   156  5.095991017326767E-006
                   157  4.962024620172596E-005
                   158 -1.656021873351133E-004
                   159 -2.165067927855153E-005
                   160 -5.888887716211232E-005