[Molden Format]
[Atoms] AU
  N     1    7    -0.0019210300   -0.0008626500   -4.2922019300        
  C     2    6    -0.0010168500   -0.0007981700   -1.7769180200        
  C     3    6     0.0137947800   -2.3393644700   -0.4113520700        
  C     4    6    -0.0148467400    2.3378381200   -0.4114616500        
  C     5    6     0.0230600100   -2.3003621100    2.1639482400        
  C     6    6    -0.0222605400    2.2989677800    2.1638466400        
  C     7    6     0.0008710500   -0.0006635600    3.4750833500        
  H     8    1    -0.2275707000   -1.6389129000   -5.3113271800        
  H     9    1     0.2229958600    1.6371353700   -5.3115731200        
  H    10    1     0.0361296600   -4.0746748300   -1.4452516200        
  H    11    1    -0.0379249300    4.0730954800   -1.4454338400        
  H    12    1     0.0494041900   -4.0422886000    3.1965321300        
  H    13    1    -0.0478624100    4.0409472000    3.1963599000        
  H    14    1     0.0015995100   -0.0006116200    5.5016390800        
[5D]
[7F]
[GTO]
  1  0
   s    12 1.00
  0.114200D+05  0.172695D-04
  0.171200D+04  0.134411D-03
  0.389300D+03  0.694561D-03
  0.110000D+03  0.278531D-02
  0.355700D+02  0.863457D-02
  0.125400D+02  0.199805D-01
  0.464400D+01  0.262908D-01
  0.129300D+01 -0.243845D-01
  0.511800D+00 -0.924934D-01
  0.178700D+00 -0.339683D+00
  0.246240D-01  0.345111D+00
  0.112530D-01  0.752750D+00
   s    10 1.00
  0.114200D+05  0.523000D-03
  0.171200D+04  0.404500D-02
  0.389300D+03  0.207750D-01
  0.110000D+03  0.807269D-01
  0.355700D+02  0.233074D+00
  0.125400D+02  0.433501D+00
  0.464400D+01  0.347472D+00
  0.129300D+01  0.412620D-01
  0.511800D+00 -0.850799D-02
  0.178700D+00  0.238400D-02
   s    10 1.00
  0.114200D+05 -0.115000D-03
  0.171200D+04 -0.895000D-03
  0.389300D+03 -0.462400D-02
  0.110000D+03 -0.185280D-01
  0.355700D+02 -0.573390D-01
  0.125400D+02 -0.132076D+00
  0.464400D+01 -0.172510D+00
  0.129300D+01  0.151814D+00
  0.511800D+00  0.599944D+00
  0.178700D+00  0.387462D+00
   s     1 1.00
  0.129300D+01  0.100000D+01
   s     1 1.00
  0.178700D+00  0.100000D+01
   p     5 1.00
  0.266300D+02  0.146700D-01
  0.594800D+01  0.917640D-01
  0.174200D+01  0.298683D+00
  0.555000D+00  0.498487D+00
  0.172500D+00  0.337023D+00
   p     1 1.00
  0.174200D+01  0.100000D+01
   p     1 1.00
  0.555000D+00  0.100000D+01
   d     1 1.00
  0.165400D+01  0.100000D+01
   d     1 1.00
  0.469000D+00  0.100000D+01
   f     1 1.00
  0.109300D+01  0.100000D+01
  
  2  0
   s    10 1.00
  0.823600D+04  0.531000D-03
  0.123500D+04  0.410800D-02
  0.280800D+03  0.210870D-01
  0.792700D+02  0.818530D-01
  0.255900D+02  0.234817D+00
  0.899700D+01  0.434401D+00
  0.331900D+01  0.346129D+00
  0.905900D+00  0.393780D-01
  0.364300D+00 -0.898300D-02
  0.128500D+00  0.238500D-02
   s    10 1.00
  0.823600D+04 -0.113000D-03
  0.123500D+04 -0.878000D-03
  0.280800D+03 -0.454000D-02
  0.792700D+02 -0.181330D-01
  0.255900D+02 -0.557600D-01
  0.899700D+01 -0.126895D+00
  0.331900D+01 -0.170352D+00
  0.905900D+00  0.140382D+00
  0.364300D+00  0.598684D+00
  0.128500D+00  0.395389D+00
   s     1 1.00
  0.905900D+00  0.100000D+01
   s     1 1.00
  0.364300D+00  0.100000D+01
   p     5 1.00
  0.187100D+02  0.140310D-01
  0.413300D+01  0.868660D-01
  0.120000D+01  0.290216D+00
  0.382700D+00  0.501008D+00
  0.120900D+00  0.343406D+00
   p     1 1.00
  0.382700D+00  0.100000D+01
   p     1 1.00
  0.120900D+00  0.100000D+01
   d     1 1.00
  0.109700D+01  0.100000D+01
   d     1 1.00
  0.318000D+00  0.100000D+01
   f     1 1.00
  0.761000D+00  0.100000D+01
  
  3  0
   s    10 1.00
  0.823600D+04  0.531000D-03
  0.123500D+04  0.410800D-02
  0.280800D+03  0.210870D-01
  0.792700D+02  0.818530D-01
  0.255900D+02  0.234817D+00
  0.899700D+01  0.434401D+00
  0.331900D+01  0.346129D+00
  0.905900D+00  0.393780D-01
  0.364300D+00 -0.898300D-02
  0.128500D+00  0.238500D-02
   s    10 1.00
  0.823600D+04 -0.113000D-03
  0.123500D+04 -0.878000D-03
  0.280800D+03 -0.454000D-02
  0.792700D+02 -0.181330D-01
  0.255900D+02 -0.557600D-01
  0.899700D+01 -0.126895D+00
  0.331900D+01 -0.170352D+00
  0.905900D+00  0.140382D+00
  0.364300D+00  0.598684D+00
  0.128500D+00  0.395389D+00
   s     1 1.00
  0.905900D+00  0.100000D+01
   s     1 1.00
  0.364300D+00  0.100000D+01
   p     5 1.00
  0.187100D+02  0.140310D-01
  0.413300D+01  0.868660D-01
  0.120000D+01  0.290216D+00
  0.382700D+00  0.501008D+00
  0.120900D+00  0.343406D+00
   p     1 1.00
  0.382700D+00  0.100000D+01
   p     1 1.00
  0.120900D+00  0.100000D+01
   d     1 1.00
  0.109700D+01  0.100000D+01
   d     1 1.00
  0.318000D+00  0.100000D+01
   f     1 1.00
  0.761000D+00  0.100000D+01
  
  4  0
   s    10 1.00
  0.823600D+04  0.531000D-03
  0.123500D+04  0.410800D-02
  0.280800D+03  0.210870D-01
  0.792700D+02  0.818530D-01
  0.255900D+02  0.234817D+00
  0.899700D+01  0.434401D+00
  0.331900D+01  0.346129D+00
  0.905900D+00  0.393780D-01
  0.364300D+00 -0.898300D-02
  0.128500D+00  0.238500D-02
   s    10 1.00
  0.823600D+04 -0.113000D-03
  0.123500D+04 -0.878000D-03
  0.280800D+03 -0.454000D-02
  0.792700D+02 -0.181330D-01
  0.255900D+02 -0.557600D-01
  0.899700D+01 -0.126895D+00
  0.331900D+01 -0.170352D+00
  0.905900D+00  0.140382D+00
  0.364300D+00  0.598684D+00
  0.128500D+00  0.395389D+00
   s     1 1.00
  0.905900D+00  0.100000D+01
   s     1 1.00
  0.364300D+00  0.100000D+01
   p     5 1.00
  0.187100D+02  0.140310D-01
  0.413300D+01  0.868660D-01
  0.120000D+01  0.290216D+00
  0.382700D+00  0.501008D+00
  0.120900D+00  0.343406D+00
   p     1 1.00
  0.382700D+00  0.100000D+01
   p     1 1.00
  0.120900D+00  0.100000D+01
   d     1 1.00
  0.109700D+01  0.100000D+01
   d     1 1.00
  0.318000D+00  0.100000D+01
   f     1 1.00
  0.761000D+00  0.100000D+01
  
  5  0
   s    10 1.00
  0.823600D+04  0.531000D-03
  0.123500D+04  0.410800D-02
  0.280800D+03  0.210870D-01
  0.792700D+02  0.818530D-01
  0.255900D+02  0.234817D+00
  0.899700D+01  0.434401D+00
  0.331900D+01  0.346129D+00
  0.905900D+00  0.393780D-01
  0.364300D+00 -0.898300D-02
  0.128500D+00  0.238500D-02
   s    10 1.00
  0.823600D+04 -0.113000D-03
  0.123500D+04 -0.878000D-03
  0.280800D+03 -0.454000D-02
  0.792700D+02 -0.181330D-01
  0.255900D+02 -0.557600D-01
  0.899700D+01 -0.126895D+00
  0.331900D+01 -0.170352D+00
  0.905900D+00  0.140382D+00
  0.364300D+00  0.598684D+00
  0.128500D+00  0.395389D+00
   s     1 1.00
  0.905900D+00  0.100000D+01
   s     1 1.00
  0.364300D+00  0.100000D+01
   p     5 1.00
  0.187100D+02  0.140310D-01
  0.413300D+01  0.868660D-01
  0.120000D+01  0.290216D+00
  0.382700D+00  0.501008D+00
  0.120900D+00  0.343406D+00
   p     1 1.00
  0.382700D+00  0.100000D+01
   p     1 1.00
  0.120900D+00  0.100000D+01
   d     1 1.00
  0.109700D+01  0.100000D+01
   d     1 1.00
  0.318000D+00  0.100000D+01
   f     1 1.00
  0.761000D+00  0.100000D+01
  
  6  0
   s    10 1.00
  0.823600D+04  0.531000D-03
  0.123500D+04  0.410800D-02
  0.280800D+03  0.210870D-01
  0.792700D+02  0.818530D-01
  0.255900D+02  0.234817D+00
  0.899700D+01  0.434401D+00
  0.331900D+01  0.346129D+00
  0.905900D+00  0.393780D-01
  0.364300D+00 -0.898300D-02
  0.128500D+00  0.238500D-02
   s    10 1.00
  0.823600D+04 -0.113000D-03
  0.123500D+04 -0.878000D-03
  0.280800D+03 -0.454000D-02
  0.792700D+02 -0.181330D-01
  0.255900D+02 -0.557600D-01
  0.899700D+01 -0.126895D+00
  0.331900D+01 -0.170352D+00
  0.905900D+00  0.140382D+00
  0.364300D+00  0.598684D+00
  0.128500D+00  0.395389D+00
   s     1 1.00
  0.905900D+00  0.100000D+01
   s     1 1.00
  0.364300D+00  0.100000D+01
   p     5 1.00
  0.187100D+02  0.140310D-01
  0.413300D+01  0.868660D-01
  0.120000D+01  0.290216D+00
  0.382700D+00  0.501008D+00
  0.120900D+00  0.343406D+00
   p     1 1.00
  0.382700D+00  0.100000D+01
   p     1 1.00
  0.120900D+00  0.100000D+01
   d     1 1.00
  0.109700D+01  0.100000D+01
   d     1 1.00
  0.318000D+00  0.100000D+01
   f     1 1.00
  0.761000D+00  0.100000D+01
  
  7  0
   s    10 1.00
  0.823600D+04  0.531000D-03
  0.123500D+04  0.410800D-02
  0.280800D+03  0.210870D-01
  0.792700D+02  0.818530D-01
  0.255900D+02  0.234817D+00
  0.899700D+01  0.434401D+00
  0.331900D+01  0.346129D+00
  0.905900D+00  0.393780D-01
  0.364300D+00 -0.898300D-02
  0.128500D+00  0.238500D-02
   s    10 1.00
  0.823600D+04 -0.113000D-03
  0.123500D+04 -0.878000D-03
  0.280800D+03 -0.454000D-02
  0.792700D+02 -0.181330D-01
  0.255900D+02 -0.557600D-01
  0.899700D+01 -0.126895D+00
  0.331900D+01 -0.170352D+00
  0.905900D+00  0.140382D+00
  0.364300D+00  0.598684D+00
  0.128500D+00  0.395389D+00
   s     1 1.00
  0.905900D+00  0.100000D+01
   s     1 1.00
  0.364300D+00  0.100000D+01
   p     5 1.00
  0.187100D+02  0.140310D-01
  0.413300D+01  0.868660D-01
  0.120000D+01  0.290216D+00
  0.382700D+00  0.501008D+00
  0.120900D+00  0.343406D+00
   p     1 1.00
  0.382700D+00  0.100000D+01
   p     1 1.00
  0.120900D+00  0.100000D+01
   d     1 1.00
  0.109700D+01  0.100000D+01
   d     1 1.00
  0.318000D+00  0.100000D+01
   f     1 1.00
  0.761000D+00  0.100000D+01
  
  8  0
   s     4 1.00
  0.130100D+02  0.196850D-01
  0.196200D+01  0.137977D+00
  0.444600D+00  0.478148D+00
  0.122000D+00  0.501240D+00
   s     1 1.00
  0.122000D+00  0.100000D+01
   p     1 1.00
  0.727000D+00  0.100000D+01
  
  9  0
   s     4 1.00
  0.130100D+02  0.196850D-01
  0.196200D+01  0.137977D+00
  0.444600D+00  0.478148D+00
  0.122000D+00  0.501240D+00
   s     1 1.00
  0.122000D+00  0.100000D+01
   p     1 1.00
  0.727000D+00  0.100000D+01
  
 10  0
   s     4 1.00
  0.130100D+02  0.196850D-01
  0.196200D+01  0.137977D+00
  0.444600D+00  0.478148D+00
  0.122000D+00  0.501240D+00
   s     1 1.00
  0.122000D+00  0.100000D+01
   p     1 1.00
  0.727000D+00  0.100000D+01
  
 11  0
   s     4 1.00
  0.130100D+02  0.196850D-01
  0.196200D+01  0.137977D+00
  0.444600D+00  0.478148D+00
  0.122000D+00  0.501240D+00
   s     1 1.00
  0.122000D+00  0.100000D+01
   p     1 1.00
  0.727000D+00  0.100000D+01
  
 12  0
   s     4 1.00
  0.130100D+02  0.196850D-01
  0.196200D+01  0.137977D+00
  0.444600D+00  0.478148D+00
  0.122000D+00  0.501240D+00
   s     1 1.00
  0.122000D+00  0.100000D+01
   p     1 1.00
  0.727000D+00  0.100000D+01
  
 13  0
   s     4 1.00
  0.130100D+02  0.196850D-01
  0.196200D+01  0.137977D+00
  0.444600D+00  0.478148D+00
  0.122000D+00  0.501240D+00
   s     1 1.00
  0.122000D+00  0.100000D+01
   p     1 1.00
  0.727000D+00  0.100000D+01
  
 14  0
   s     4 1.00
  0.130100D+02  0.196850D-01
  0.196200D+01  0.137977D+00
  0.444600D+00  0.478148D+00
  0.122000D+00  0.501240D+00
   s     1 1.00
  0.122000D+00  0.100000D+01
   p     1 1.00
  0.727000D+00  0.100000D+01
  
[MO]
 Sym= __1_A__
 Ene=   1.00000000000000     
 Spin= Alpha
 Occup=    1.00000000000000     
                     1  4.198616881784017E-005
                     2  0.998067590733329     
                     3  9.245471427032045E-003
                     4  2.062854643240786E-003
                     5  1.538009436463959E-003
                     6  1.611027488049609E-006
                     7  1.033603113730987E-007
                     8  4.480295221310821E-003
                     9 -4.497178075361956E-008
                    10  7.956980650654359E-009
                    11 -1.215408809991222E-004
                    12 -3.479665514859411E-008
                    13 -3.477910085851446E-008
                    14 -9.255995687121576E-005
                    15  2.671738772964965E-004
                    16  2.068919136108214E-007
                    17  6.782785708456428E-010
                    18 -1.139815742560912E-004
                    19  2.452818134774825E-005
                    20  1.617311614357811E-004
                    21 -9.913916007712560E-008
                    22  4.489601208001248E-008
                    23  5.624908084841468E-004
                    24 -1.352735036317581E-004
                    25 -1.894239325638528E-004
                    26  1.166540139148923E-007
                    27  2.505576206052517E-008
                    28  8.973710798916092E-005
                    29 -1.434617632638545E-005
                    30 -3.982490139495135E-008
                    31 -4.764412956848556E-009
                    32 -3.658041482499892E-004
                    33  2.715861800145448E-003
                    34  1.461114085718012E-004
                    35 -2.529665256548418E-004
                    36 -2.553829676718161E-006
                    37 -1.636509049740155E-007
                    38 -7.092225277069476E-003
                    39  1.383350906521165E-007
                    40 -4.055268638689624E-008
                    41  3.758134594821948E-004
                    42  1.582336442573897E-006
                    43  1.511988053494146E-007
                    44  4.403705563139414E-003
                    45  3.488988424747168E-004
                    46  1.679527318857093E-007
                    47  3.027032078082257E-008
                    48  1.374189630139813E-004
                    49 -4.233237522201012E-006
                    50  5.913528666969842E-005
                    51  1.973164985100725E-007
                    52 -1.640370683142047E-007
                    53 -4.468111458552286E-004
                    54  3.500624392487677E-005
                    55 -1.108642042173722E-004
                    56  5.412822661934630E-008
                    57  1.159133816658150E-008
                    58  7.724474174766024E-005
                    59 -6.863923959943673E-006
                    60 -3.412502709857146E-008
                    61 -4.304481839601998E-009
                    62 -2.110394260836425E-004
                    63 -1.679301517009359E-003
                    64  5.847896820111190E-005
                    65  5.621655035428660E-004
                    66 -8.031467684305479E-006
                    67 -8.406643460744191E-004
                    68  1.014465594790204E-003
                    69  1.738399477231382E-005
                    70 -3.235782651954974E-005
                    71  6.142076494950007E-004
                    72  9.020084388264428E-006
                    73 -5.704875969900444E-004
                    74 -1.354142950321956E-004
                    75  9.228456685846688E-005
                    76  1.003275470485848E-006
                    77 -8.603466774686927E-006
                    78  4.159265343855402E-005
                    79 -1.699949893341303E-007
                    80 -2.164933372079094E-005
                    81 -1.270286984201549E-005
                    82  2.069020205743740E-004
                    83 -2.957588296294104E-005
                    84  1.025690197904615E-005
                    85 -9.307917050996464E-005
                    86  1.252597140532592E-006
                    87 -2.919021591760195E-005
                    88  2.012599965590994E-005
                    89 -2.504097443969824E-006
                    90  6.124345922036644E-007
                    91  1.307074777782570E-005
                    92 -2.110031763155718E-004
                    93 -1.679155578930204E-003
                    94  5.864477490215380E-005
                    95  5.616164586043518E-004
                    96  8.759634087758801E-006
                    97  8.407355629812363E-004
                    98  1.014524843691230E-003
                    99 -1.694161269195656E-005
                   100  3.224888834055680E-005
                   101  6.135840304639068E-004
                   102 -9.110944412823807E-006
                   103  5.699042912727859E-004
                   104 -1.352828108527246E-004
                   105  9.225222670018718E-005
                   106 -9.181768091186099E-007
                   107  8.630820655427512E-006
                   108  4.159356267812076E-005
                   109 -1.638566825981855E-007
                   110 -2.208953279955621E-005
                   111  1.269719005374990E-005
                   112 -2.070192779551785E-004
                   113 -2.964594321475148E-005
                   114  1.010879110959033E-005
                   115 -9.301018620518206E-005
                   116 -1.111841863767676E-006
                   117  2.920817784655433E-005
                   118  2.011821039599480E-005
                   119 -2.459798660537664E-006
                   120 -6.305705273266341E-007
                   121 -1.307091483314930E-005
                   122 -1.480197873810205E-004
                   123  5.262780724306599E-006
                   124  1.105052045801743E-004
                   125  1.297368432833485E-004
                   126 -9.430484566927166E-006
                   127  4.130765467790121E-005
                   128 -7.977336791661144E-004
                   129  8.988797241370830E-007
                   130  2.036372804779322E-005
                   131  3.489293493131339E-004
                   132  6.366002523889866E-006
                   133 -1.682822205872562E-004
                   134  7.063888772995588E-004
                   135 -1.717560506551149E-005
                   136  6.950652891339038E-007
                   137  1.855771413505530E-006
                   138  1.432408580371851E-006
                   139  5.327822903015018E-007
                   140 -1.882096390341012E-004
                   141 -6.668064781001125E-006
                   142  1.680605916274439E-004
                   143  1.305912062604563E-005
                   144 -3.129728903250330E-006
                   145 -3.904673811476636E-005
                   146  2.826879936609691E-007
                   147  1.267597955430617E-006
                   148 -9.595123839024773E-006
                   149 -5.073686745388235E-007
                   150 -2.600657031420226E-007
                   151 -3.595344233426229E-006
                   152 -1.484961503303438E-004
                   153  3.580948079480380E-006
                   154  1.100290642235902E-004
                   155  1.327544808746965E-004
                   156  8.851368257480972E-006
                   157 -4.129357815026631E-005
                   158 -7.977063866675458E-004
                   159 -6.362006299935954E-007
                   160 -2.069314061685858E-005
                   161  3.485670085332190E-004
                   162 -5.864545710319417E-006
                   163  1.688712236832458E-004
                   164  7.065511250726902E-004
                   165 -1.712037374789671E-005
                   166 -7.178567573806881E-007
                   167 -1.864981670409963E-006
                   168  1.380685717801354E-006
                   169  5.300738263385455E-007
                   170 -1.880653129934087E-004
                   171  6.423561209899490E-006
                   172 -1.683294420522871E-004
                   173  1.303009735790384E-005
                   174 -3.249422528844607E-006
                   175 -3.896037940808898E-005
                   176 -2.017405199273899E-007
                   177 -1.255069939558269E-006
                   178 -9.645907931281774E-006
                   179 -5.126806771705288E-007
                   180  2.683076076690592E-007
                   181  3.603344652058214E-006
                   182 -1.222756365686846E-004
                   183 -3.280646981014222E-004
                   184  3.212881099256841E-005
                   185  1.497809237237194E-004
                   186 -1.899957164238868E-008
                   187  8.440821698114829E-008
                   188 -4.103644270299834E-005
                   189  1.520937306767171E-008
                   190 -4.244768900616779E-007
                   191  1.795300155424926E-005
                   192  1.987191324547343E-008
                   193 -3.525702652491348E-008
                   194  5.124070514466755E-005
                   195  1.914626503017336E-005
                   196  8.267400278842114E-009
                   197  2.449207291898299E-008
                   198  9.059633847028223E-006
                   199  2.406265072903647E-007
                   200  5.874186364426245E-005
                   201  1.715183479828981E-008
                   202  2.124235611874886E-007
                   203  4.929382460896210E-005
                   204 -2.496197058550732E-006
                   205 -1.165853732290005E-005
                   206  8.637614955713498E-009
                   207 -7.665542332097220E-009
                   208  3.200541351166842E-006
                   209  6.539269730412595E-007
                   210 -5.150024241108819E-010
                   211  2.724091921102223E-008
                   212  3.852952221889127E-003
                   213 -2.323713423137475E-003
                   214  7.022259241414013E-005
                   215  4.623126887323206E-004
                   216  3.791503202186707E-004
                   217  3.852931720851135E-003
                   218 -2.323703962557893E-003
                   219 -6.995029967511919E-005
                   220 -4.622919031207510E-004
                   221  3.792283225909310E-004
                   222 -6.662674147926313E-004
                   223 -1.263999017984433E-004
                   224  5.634820584279759E-007
                   225 -1.742424510705299E-005
                   226 -4.498385538705527E-005
                   227 -6.663366975562850E-004
                   228 -1.260276042971522E-004
                   229 -5.960734455929976E-007
                   230  1.740377549334188E-005
                   231 -4.501096781089538E-005
                   232 -2.335318719818822E-004
                   233 -4.063769332537636E-004
                   234 -7.641262221087153E-007
                   235 -5.791564011093583E-006
                   236  5.782083030031141E-006
                   237 -2.335711857869256E-004
                   238 -4.065383979775512E-004
                   239  7.672344997210327E-007
                   240  5.838133910299476E-006
                   241  5.827941626904718E-006
                   242  6.890658250451636E-005
                   243 -1.284013355924008E-004
                   244  4.959659616006110E-009
                   245 -2.046346537756017E-008
                   246  1.444974658041060E-005
 Sym= __2_A__
 Ene=   2.00000000000000     
 Spin= Alpha
 Occup=    1.00000000000000     
                     1 -4.592525191389984E-005
                     2 -2.130386067920864E-004
                     3  2.287255947314062E-003
                     4  1.010341147595766E-004
                     5  1.264042349990767E-003
                     6  1.076820300052635E-006
                     7  8.280561423561993E-008
                     8  2.994553455337753E-003
                     9 -1.846209846701279E-008
                    10 -5.836083997664573E-009
                    11 -5.123775884804880E-005
                    12 -1.914226150470049E-007
                    13 -7.339062736966068E-009
                    14 -5.358941329926489E-004
                    15  4.281615812765902E-005
                    16  3.796443474992163E-009
                    17  7.188695082518819E-009
                    18  6.388884089781213E-005
                    19 -8.937909187072548E-006
                    20 -2.812370028455757E-004
                    21 -5.831640440021576E-008
                    22 -4.081323698020804E-008
                    23 -3.267352814895240E-004
                    24  5.177753125276615E-005
                    25  1.808548023280438E-004
                    26 -1.566869401762820E-007
                    27 -4.598468751758525E-009
                    28 -2.285594076675250E-006
                    29 -1.093232580419098E-005
                    30  8.360352765919653E-010
                    31 -4.293824823091729E-009
                    32   1.00105979163689     
                    33  9.279236771860953E-003
                    34  2.630919042017732E-003
                    35 -7.763523795897266E-003
                    36 -1.486456347676918E-006
                    37 -1.104275443437121E-007
                    38 -4.133858768664717E-003
                    39  3.639139206781682E-007
                    40  2.523261944153574E-008
                    41  1.012358549060823E-003
                    42  1.595942111594286E-006
                    43  4.701280104266760E-008
                    44  4.435982832297135E-003
                    45  4.732584043162834E-004
                    46  4.491833162856262E-007
                    47  5.134838642652629E-009
                    48 -4.300366733963100E-004
                    49  6.370805206983375E-006
                    50  5.742220551875614E-004
                    51  2.300373176688918E-008
                    52  6.074602878772320E-008
                    53  9.335181360895024E-004
                    54 -1.120853864158133E-005
                    55  3.851936385871276E-004
                    56 -2.230829533450674E-007
                    57 -3.667089651631691E-008
                    58 -2.054975166488930E-004
                    59  4.657449951306091E-006
                    60  9.069290596278440E-008
                    61 -2.826280240604758E-009
                    62  7.252239172130899E-003
                    63 -2.054142347522356E-003
                    64 -2.757870324000120E-004
                    65  3.035282283211358E-003
                    66  3.199243231796139E-006
                    67  9.634688559856538E-005
                    68 -1.023052545110778E-005
                    69 -1.319610958114663E-005
                    70  5.985234760209913E-004
                    71  2.112023801260905E-005
                    72  2.215955484266444E-005
                    73 -2.091376347150118E-003
                    74  9.582686284031118E-005
                    75 -1.514233598657089E-005
                    76  3.622240787600785E-007
                    77  1.390440907583140E-005
                    78  2.903959393944802E-005
                    79  7.442296386803169E-007
                    80  7.627401800250904E-004
                    81  1.049191846011750E-005
                    82 -4.222864556841216E-004
                    83 -1.191648919084344E-005
                    84 -6.647516201566258E-006
                    85  7.296642385383513E-005
                    86 -2.222952170536304E-007
                    87  4.567935413918867E-005
                    88 -1.269152453986790E-004
                    89  7.646862881868229E-007
                    90  5.771029670618963E-007
                    91  5.010524966282363E-005
                    92  7.252212914893140E-003
                    93 -2.054226113526362E-003
                    94 -2.758268430313480E-004
                    95  3.035475037327650E-003
                    96 -3.206060781791950E-006
                    97 -9.634774885730107E-005
                    98 -1.024445249051115E-005
                    99  1.321060112553755E-005
                   100 -5.985247864234926E-004
                   101  2.126105779765189E-005
                   102 -2.209261725333700E-005
                   103  2.091497277791881E-003
                   104  9.558327766299847E-005
                   105 -1.512723870646433E-005
                   106 -4.020261215486677E-007
                   107 -1.391060926508995E-005
                   108  2.903846554296206E-005
                   109  7.342168768622635E-007
                   110  7.627686126704424E-004
                   111 -9.533990957417539E-006
                   112  4.224045193768001E-004
                   113 -1.192828805838300E-005
                   114 -6.344105728504686E-006
                   115  7.294893831648660E-005
                   116  2.378138887124862E-007
                   117 -4.569663845965230E-005
                   118 -1.269062921181066E-004
                   119  7.569299303881740E-007
                   120 -4.651742481029951E-007
                   121 -5.011081091251636E-005
                   122 -2.322883174575878E-004
                   123 -7.536209827296491E-004
                   124  2.244090978323108E-004
                   125 -1.108234104603002E-004
                   126 -1.686555543335772E-006
                   127 -1.847416314884489E-005
                   128 -2.547545937161998E-004
                   129  3.062865167527122E-006
                   130 -8.661654983150095E-006
                   131  5.359976939353501E-004
                   132 -4.416424398545518E-006
                   133  3.270432777345131E-004
                   134  7.499418774693551E-004
                   135 -1.406327332619993E-005
                   136 -9.363039448680726E-007
                   137  5.160255846655223E-005
                   138  1.394032612011735E-005
                   139  5.140886947482206E-007
                   140 -2.898222255561119E-004
                   141  2.097234210269164E-006
                   142 -2.187954217499248E-004
                   143 -1.337480983031765E-005
                   144 -1.873731153609600E-006
                   145  1.085103677942323E-006
                   146  7.974292496758634E-007
                   147 -4.093335005175397E-005
                   148 -3.967523029550604E-005
                   149 -8.486691795294093E-007
                   150  3.676020018397947E-007
                   151 -5.599349658962326E-006
                   152 -2.320094411840519E-004
                   153 -7.526958757583266E-004
                   154  2.244621122257014E-004
                   155 -1.117749989211294E-004
                   156  1.503283620363605E-006
                   157  1.845327488759368E-005
                   158 -2.547599499475877E-004
                   159 -2.677984482660877E-006
                   160  8.723752256311938E-006