[Molden Format]
[Atoms] AU
  N     1    7     0.0000000000   -4.2907334100    0.0000000000        
  C     2    6     0.0000000000   -1.7772236300    0.0000000000        
  C     3    6    -2.3389203600   -0.4111016300    0.0000000000        
  C     4    6     2.3389203600   -0.4111016300    0.0000000000        
  C     5    6    -2.2998668500    2.1639215300    0.0000000000        
  C     6    6     2.2998668500    2.1639215300    0.0000000000        
  C     7    6     0.0000000000    3.4755251800    0.0000000000        
  H     8    1    -2.5732809600   -5.8782318000    0.0000000000        
  H     9    1     2.4124509000   -5.7790131500    0.0000000000        
  H    10    1    -4.0745407300   -1.4447408500    0.0000000000        
  H    11    1     4.0745407300   -1.4447408500    0.0000000000        
  H    12    1    -4.0420632100    3.1963889500    0.0000000000        
  H    13    1     4.0420632100    3.1963889500    0.0000000000        
  H    14    1     0.0000000000    5.5020335600    0.0000000000        
[5D]
[7F]
[GTO]
  1  0
   s    12 1.00
  0.114200D+05  0.172695D-04
  0.171200D+04  0.134411D-03
  0.389300D+03  0.694561D-03
  0.110000D+03  0.278531D-02
  0.355700D+02  0.863457D-02
  0.125400D+02  0.199805D-01
  0.464400D+01  0.262908D-01
  0.129300D+01 -0.243845D-01
  0.511800D+00 -0.924934D-01
  0.178700D+00 -0.339683D+00
  0.246240D-01  0.345111D+00
  0.112530D-01  0.752750D+00
   s    10 1.00
  0.114200D+05  0.523000D-03
  0.171200D+04  0.404500D-02
  0.389300D+03  0.207750D-01
  0.110000D+03  0.807269D-01
  0.355700D+02  0.233074D+00
  0.125400D+02  0.433501D+00
  0.464400D+01  0.347472D+00
  0.129300D+01  0.412620D-01
  0.511800D+00 -0.850799D-02
  0.178700D+00  0.238400D-02
   s    10 1.00
  0.114200D+05 -0.115000D-03
  0.171200D+04 -0.895000D-03
  0.389300D+03 -0.462400D-02
  0.110000D+03 -0.185280D-01
  0.355700D+02 -0.573390D-01
  0.125400D+02 -0.132076D+00
  0.464400D+01 -0.172510D+00
  0.129300D+01  0.151814D+00
  0.511800D+00  0.599944D+00
  0.178700D+00  0.387462D+00
   s     1 1.00
  0.129300D+01  0.100000D+01
   s     1 1.00
  0.178700D+00  0.100000D+01
   p     5 1.00
  0.266300D+02  0.146700D-01
  0.594800D+01  0.917640D-01
  0.174200D+01  0.298683D+00
  0.555000D+00  0.498487D+00
  0.172500D+00  0.337023D+00
   p     1 1.00
  0.174200D+01  0.100000D+01
   p     1 1.00
  0.555000D+00  0.100000D+01
   d     1 1.00
  0.165400D+01  0.100000D+01
   d     1 1.00
  0.469000D+00  0.100000D+01
   f     1 1.00
  0.109300D+01  0.100000D+01
  
  2  0
   s    10 1.00
  0.823600D+04  0.531000D-03
  0.123500D+04  0.410800D-02
  0.280800D+03  0.210870D-01
  0.792700D+02  0.818530D-01
  0.255900D+02  0.234817D+00
  0.899700D+01  0.434401D+00
  0.331900D+01  0.346129D+00
  0.905900D+00  0.393780D-01
  0.364300D+00 -0.898300D-02
  0.128500D+00  0.238500D-02
   s    10 1.00
  0.823600D+04 -0.113000D-03
  0.123500D+04 -0.878000D-03
  0.280800D+03 -0.454000D-02
  0.792700D+02 -0.181330D-01
  0.255900D+02 -0.557600D-01
  0.899700D+01 -0.126895D+00
  0.331900D+01 -0.170352D+00
  0.905900D+00  0.140382D+00
  0.364300D+00  0.598684D+00
  0.128500D+00  0.395389D+00
   s     1 1.00
  0.905900D+00  0.100000D+01
   s     1 1.00
  0.364300D+00  0.100000D+01
   p     5 1.00
  0.187100D+02  0.140310D-01
  0.413300D+01  0.868660D-01
  0.120000D+01  0.290216D+00
  0.382700D+00  0.501008D+00
  0.120900D+00  0.343406D+00
   p     1 1.00
  0.382700D+00  0.100000D+01
   p     1 1.00
  0.120900D+00  0.100000D+01
   d     1 1.00
  0.109700D+01  0.100000D+01
   d     1 1.00
  0.318000D+00  0.100000D+01
   f     1 1.00
  0.761000D+00  0.100000D+01
  
  3  0
   s    10 1.00
  0.823600D+04  0.531000D-03
  0.123500D+04  0.410800D-02
  0.280800D+03  0.210870D-01
  0.792700D+02  0.818530D-01
  0.255900D+02  0.234817D+00
  0.899700D+01  0.434401D+00
  0.331900D+01  0.346129D+00
  0.905900D+00  0.393780D-01
  0.364300D+00 -0.898300D-02
  0.128500D+00  0.238500D-02
   s    10 1.00
  0.823600D+04 -0.113000D-03
  0.123500D+04 -0.878000D-03
  0.280800D+03 -0.454000D-02
  0.792700D+02 -0.181330D-01
  0.255900D+02 -0.557600D-01
  0.899700D+01 -0.126895D+00
  0.331900D+01 -0.170352D+00
  0.905900D+00  0.140382D+00
  0.364300D+00  0.598684D+00
  0.128500D+00  0.395389D+00
   s     1 1.00
  0.905900D+00  0.100000D+01
   s     1 1.00
  0.364300D+00  0.100000D+01
   p     5 1.00
  0.187100D+02  0.140310D-01
  0.413300D+01  0.868660D-01
  0.120000D+01  0.290216D+00
  0.382700D+00  0.501008D+00
  0.120900D+00  0.343406D+00
   p     1 1.00
  0.382700D+00  0.100000D+01
   p     1 1.00
  0.120900D+00  0.100000D+01
   d     1 1.00
  0.109700D+01  0.100000D+01
   d     1 1.00
  0.318000D+00  0.100000D+01
   f     1 1.00
  0.761000D+00  0.100000D+01
  
  4  0
   s    10 1.00
  0.823600D+04  0.531000D-03
  0.123500D+04  0.410800D-02
  0.280800D+03  0.210870D-01
  0.792700D+02  0.818530D-01
  0.255900D+02  0.234817D+00
  0.899700D+01  0.434401D+00
  0.331900D+01  0.346129D+00
  0.905900D+00  0.393780D-01
  0.364300D+00 -0.898300D-02
  0.128500D+00  0.238500D-02
   s    10 1.00
  0.823600D+04 -0.113000D-03
  0.123500D+04 -0.878000D-03
  0.280800D+03 -0.454000D-02
  0.792700D+02 -0.181330D-01
  0.255900D+02 -0.557600D-01
  0.899700D+01 -0.126895D+00
  0.331900D+01 -0.170352D+00
  0.905900D+00  0.140382D+00
  0.364300D+00  0.598684D+00
  0.128500D+00  0.395389D+00
   s     1 1.00
  0.905900D+00  0.100000D+01
   s     1 1.00
  0.364300D+00  0.100000D+01
   p     5 1.00
  0.187100D+02  0.140310D-01
  0.413300D+01  0.868660D-01
  0.120000D+01  0.290216D+00
  0.382700D+00  0.501008D+00
  0.120900D+00  0.343406D+00
   p     1 1.00
  0.382700D+00  0.100000D+01
   p     1 1.00
  0.120900D+00  0.100000D+01
   d     1 1.00
  0.109700D+01  0.100000D+01
   d     1 1.00
  0.318000D+00  0.100000D+01
   f     1 1.00
  0.761000D+00  0.100000D+01
  
  5  0
   s    10 1.00
  0.823600D+04  0.531000D-03
  0.123500D+04  0.410800D-02
  0.280800D+03  0.210870D-01
  0.792700D+02  0.818530D-01
  0.255900D+02  0.234817D+00
  0.899700D+01  0.434401D+00
  0.331900D+01  0.346129D+00
  0.905900D+00  0.393780D-01
  0.364300D+00 -0.898300D-02
  0.128500D+00  0.238500D-02
   s    10 1.00
  0.823600D+04 -0.113000D-03
  0.123500D+04 -0.878000D-03
  0.280800D+03 -0.454000D-02
  0.792700D+02 -0.181330D-01
  0.255900D+02 -0.557600D-01
  0.899700D+01 -0.126895D+00
  0.331900D+01 -0.170352D+00
  0.905900D+00  0.140382D+00
  0.364300D+00  0.598684D+00
  0.128500D+00  0.395389D+00
   s     1 1.00
  0.905900D+00  0.100000D+01
   s     1 1.00
  0.364300D+00  0.100000D+01
   p     5 1.00
  0.187100D+02  0.140310D-01
  0.413300D+01  0.868660D-01
  0.120000D+01  0.290216D+00
  0.382700D+00  0.501008D+00
  0.120900D+00  0.343406D+00
   p     1 1.00
  0.382700D+00  0.100000D+01
   p     1 1.00
  0.120900D+00  0.100000D+01
   d     1 1.00
  0.109700D+01  0.100000D+01
   d     1 1.00
  0.318000D+00  0.100000D+01
   f     1 1.00
  0.761000D+00  0.100000D+01
  
  6  0
   s    10 1.00
  0.823600D+04  0.531000D-03
  0.123500D+04  0.410800D-02
  0.280800D+03  0.210870D-01
  0.792700D+02  0.818530D-01
  0.255900D+02  0.234817D+00
  0.899700D+01  0.434401D+00
  0.331900D+01  0.346129D+00
  0.905900D+00  0.393780D-01
  0.364300D+00 -0.898300D-02
  0.128500D+00  0.238500D-02
   s    10 1.00
  0.823600D+04 -0.113000D-03
  0.123500D+04 -0.878000D-03
  0.280800D+03 -0.454000D-02
  0.792700D+02 -0.181330D-01
  0.255900D+02 -0.557600D-01
  0.899700D+01 -0.126895D+00
  0.331900D+01 -0.170352D+00
  0.905900D+00  0.140382D+00
  0.364300D+00  0.598684D+00
  0.128500D+00  0.395389D+00
   s     1 1.00
  0.905900D+00  0.100000D+01
   s     1 1.00
  0.364300D+00  0.100000D+01
   p     5 1.00
  0.187100D+02  0.140310D-01
  0.413300D+01  0.868660D-01
  0.120000D+01  0.290216D+00
  0.382700D+00  0.501008D+00
  0.120900D+00  0.343406D+00
   p     1 1.00
  0.382700D+00  0.100000D+01
   p     1 1.00
  0.120900D+00  0.100000D+01
   d     1 1.00
  0.109700D+01  0.100000D+01
   d     1 1.00
  0.318000D+00  0.100000D+01
   f     1 1.00
  0.761000D+00  0.100000D+01
  
  7  0
   s    10 1.00
  0.823600D+04  0.531000D-03
  0.123500D+04  0.410800D-02
  0.280800D+03  0.210870D-01
  0.792700D+02  0.818530D-01
  0.255900D+02  0.234817D+00
  0.899700D+01  0.434401D+00
  0.331900D+01  0.346129D+00
  0.905900D+00  0.393780D-01
  0.364300D+00 -0.898300D-02
  0.128500D+00  0.238500D-02
   s    10 1.00
  0.823600D+04 -0.113000D-03
  0.123500D+04 -0.878000D-03
  0.280800D+03 -0.454000D-02
  0.792700D+02 -0.181330D-01
  0.255900D+02 -0.557600D-01
  0.899700D+01 -0.126895D+00
  0.331900D+01 -0.170352D+00
  0.905900D+00  0.140382D+00
  0.364300D+00  0.598684D+00
  0.128500D+00  0.395389D+00
   s     1 1.00
  0.905900D+00  0.100000D+01
   s     1 1.00
  0.364300D+00  0.100000D+01
   p     5 1.00
  0.187100D+02  0.140310D-01
  0.413300D+01  0.868660D-01
  0.120000D+01  0.290216D+00
  0.382700D+00  0.501008D+00
  0.120900D+00  0.343406D+00
   p     1 1.00
  0.382700D+00  0.100000D+01
   p     1 1.00
  0.120900D+00  0.100000D+01
   d     1 1.00
  0.109700D+01  0.100000D+01
   d     1 1.00
  0.318000D+00  0.100000D+01
   f     1 1.00
  0.761000D+00  0.100000D+01
  
  8  0
   s     4 1.00
  0.130100D+02  0.196850D-01
  0.196200D+01  0.137977D+00
  0.444600D+00  0.478148D+00
  0.122000D+00  0.501240D+00
   s     1 1.00
  0.122000D+00  0.100000D+01
   p     1 1.00
  0.727000D+00  0.100000D+01
  
  9  0
   s     4 1.00
  0.130100D+02  0.196850D-01
  0.196200D+01  0.137977D+00
  0.444600D+00  0.478148D+00
  0.122000D+00  0.501240D+00
   s     1 1.00
  0.122000D+00  0.100000D+01
   p     1 1.00
  0.727000D+00  0.100000D+01
  
 10  0
   s     4 1.00
  0.130100D+02  0.196850D-01
  0.196200D+01  0.137977D+00
  0.444600D+00  0.478148D+00
  0.122000D+00  0.501240D+00
   s     1 1.00
  0.122000D+00  0.100000D+01
   p     1 1.00
  0.727000D+00  0.100000D+01
  
 11  0
   s     4 1.00
  0.130100D+02  0.196850D-01
  0.196200D+01  0.137977D+00
  0.444600D+00  0.478148D+00
  0.122000D+00  0.501240D+00
   s     1 1.00
  0.122000D+00  0.100000D+01
   p     1 1.00
  0.727000D+00  0.100000D+01
  
 12  0
   s     4 1.00
  0.130100D+02  0.196850D-01
  0.196200D+01  0.137977D+00
  0.444600D+00  0.478148D+00
  0.122000D+00  0.501240D+00
   s     1 1.00
  0.122000D+00  0.100000D+01
   p     1 1.00
  0.727000D+00  0.100000D+01
  
 13  0
   s     4 1.00
  0.130100D+02  0.196850D-01
  0.196200D+01  0.137977D+00
  0.444600D+00  0.478148D+00
  0.122000D+00  0.501240D+00
   s     1 1.00
  0.122000D+00  0.100000D+01
   p     1 1.00
  0.727000D+00  0.100000D+01
  
 14  0
   s     4 1.00
  0.130100D+02  0.196850D-01
  0.196200D+01  0.137977D+00
  0.444600D+00  0.478148D+00
  0.122000D+00  0.501240D+00
   s     1 1.00
  0.122000D+00  0.100000D+01
   p     1 1.00
  0.727000D+00  0.100000D+01
  
[MO]
 Sym= __1_A'_
 Ene=   1.00000000000000     
 Spin= Alpha
 Occup=    1.00000000000000     
                     1  3.585825286633226E-005
                     2  0.998798415898353     
                     3  3.503961389539304E-004
                     4  1.149918340599140E-003
                     5  5.465540401412100E-003
                     6  2.094155232542383E-003
                     7  6.818664180938225E-003
                     8  0.000000000000000E+000
                     9 -5.060987340544638E-004
                    10 -7.598227917709251E-004
                    11  0.000000000000000E+000
                    12 -1.381231287358728E-003
                    13 -2.534583650102783E-003
                    14  0.000000000000000E+000
                    15 -2.160205306636394E-005
                    16  0.000000000000000E+000
                    17  0.000000000000000E+000
                    18 -2.569852486964942E-004
                    19  5.585263813177235E-006
                    20  1.089566754156588E-004
                    21  0.000000000000000E+000
                    22  0.000000000000000E+000
                    23 -2.269539403782632E-004
                    24  1.793320398485038E-004
                    25  0.000000000000000E+000
                    26 -8.441656293707542E-006
                    27 -4.150483351799220E-005
                    28  0.000000000000000E+000
                    29  0.000000000000000E+000
                    30  1.268233002730423E-005
                    31 -1.261730740999835E-004
                    32 -2.880256200676963E-004
                    33  8.339846868343312E-004
                    34  3.027216065627908E-004
                    35 -3.634924804799707E-004
                    36 -9.991432368875986E-005
                    37 -3.544408859175500E-003
                    38  0.000000000000000E+000
                    39  3.522084147677849E-004
                    40  5.054832298371562E-005
                    41  0.000000000000000E+000
                    42 -1.559568661512460E-003
                    43  5.664059100203226E-003
                    44  0.000000000000000E+000
                    45 -1.517035205589674E-005
                    46  0.000000000000000E+000
                    47  0.000000000000000E+000
                    48 -1.856997709669386E-004
                    49 -9.255700020629971E-007
                    50 -2.249268902641002E-004
                    51  0.000000000000000E+000
                    52  0.000000000000000E+000
                    53 -1.005593600515412E-004
                    54  3.683537031325601E-004
                    55  0.000000000000000E+000
                    56 -1.016257976591865E-005
                    57 -4.944734020804989E-005
                    58  0.000000000000000E+000
                    59  0.000000000000000E+000
                    60  4.406347290010714E-006
                    61 -1.134532400211027E-004
                    62 -4.968834650731917E-004
                    63 -2.054212506835585E-003
                    64 -3.436806753800267E-005
                    65  1.823406711917867E-003
                    66 -4.901903133950283E-004
                    67  3.248601925899575E-004
                    68  0.000000000000000E+000
                    69  2.766730170860067E-004
                    70  6.459656365172688E-004
                    71  0.000000000000000E+000
                    72 -1.731315600625343E-003
                    73  3.517653431491038E-004
                    74  0.000000000000000E+000
                    75 -4.002718234443401E-005
                    76  0.000000000000000E+000
                    77  0.000000000000000E+000
                    78 -6.377135101673530E-005
                    79 -1.990681137550080E-005
                    80 -1.016938937593574E-004
                    81  0.000000000000000E+000
                    82  0.000000000000000E+000
                    83 -6.322663035414682E-006
                    84 -3.825618937449192E-006
                    85  0.000000000000000E+000
                    86  5.670506755495959E-006
                    87 -4.088020765765790E-005
                    88  0.000000000000000E+000
                    89  0.000000000000000E+000
                    90 -1.126394786261928E-005
                    91 -1.337233752520285E-004
                    92 -2.330699179200949E-004
                    93 -1.133452596717568E-003
                    94  1.436364133516867E-004
                    95  3.227905440335547E-004
                    96  4.035624615492463E-004
                    97  3.999471678869229E-004
                    98  0.000000000000000E+000
                    99  1.954139384562098E-004
                   100  3.009481626582125E-004
                   101  0.000000000000000E+000
                   102  9.048047731076034E-004
                   103 -1.095650614039862E-003
                   104  0.000000000000000E+000
                   105 -2.063738352963616E-005
                   106  0.000000000000000E+000
                   107  0.000000000000000E+000
                   108 -5.021804259513714E-005
                   109 -5.539150461938192E-006
                   110  1.008903660040227E-004
                   111  0.000000000000000E+000
                   112  0.000000000000000E+000
                   113 -8.044792773036876E-005
                   114  9.315541747176316E-006
                   115  0.000000000000000E+000
                   116 -2.139527166658429E-005
                   117 -3.531783060524339E-005
                   118  0.000000000000000E+000
                   119  0.000000000000000E+000
                   120  1.387561317256731E-005
                   121 -5.426206478534769E-005
                   122 -3.075993611415118E-004
                   123 -7.668337242943895E-004
                   124  1.461430559774397E-004
                   125  5.538658378753773E-004
                   126 -2.380821081348096E-005
                   127 -3.969645596772059E-004
                   128  0.000000000000000E+000
                   129  2.140452304694561E-004
                   130  4.984129825347360E-004
                   131  0.000000000000000E+000
                   132  1.722462022185747E-004
                   133  1.703186165959013E-003
                   134  0.000000000000000E+000
                   135  4.877522430091944E-006
                   136  0.000000000000000E+000
                   137  0.000000000000000E+000
                   138  3.532031603930688E-005
                   139 -4.129553481834475E-006
                   140  1.891683603701367E-004
                   141  0.000000000000000E+000
                   142  0.000000000000000E+000
                   143  2.999935550705938E-004
                   144  1.915005298432508E-004
                   145  0.000000000000000E+000
                   146 -9.464697853598826E-006
                   147 -5.123639587346263E-005
                   148  0.000000000000000E+000
                   149  0.000000000000000E+000
                   150 -9.695529434733551E-006
                   151 -4.043043145558731E-005
                   152 -2.456347747317290E-004
                   153 -5.860992597751596E-004
                   154  5.812407291776206E-005
                   155  5.634193252296129E-004
                   156 -9.688341349109334E-006
                   157 -3.369969323029353E-004
                   158  0.000000000000000E+000
                   159 -4.035717244142998E-005
                   160  1.130116295160828E-004
                   161  0.000000000000000E+000
                   162  5.182343494248847E-004
                   163  1.436633300257629E-004
                   164  0.000000000000000E+000
                   165 -2.438220855634005E-006
                   166  0.000000000000000E+000
                   167  0.000000000000000E+000
                   168  3.583996858768264E-006
                   169  8.048047039611481E-006
                   170  8.746972121972863E-005
                   171  0.000000000000000E+000
                   172  0.000000000000000E+000
                   173  6.510359672992912E-005
                   174 -5.322687981062210E-005
                   175  0.000000000000000E+000
                   176  6.543288789126646E-006
                   177 -1.749231147053628E-005
                   178  0.000000000000000E+000
                   179  0.000000000000000E+000
                   180 -1.718039175977161E-005
                   181 -1.593108734782905E-005
                   182 -2.034780286548084E-004
                   183 -6.065546209066333E-004
                   184  6.171900262075632E-005
                   185  3.232074132228025E-004
                   186 -2.627763409683024E-005
                   187 -4.214909604113275E-005
                   188  0.000000000000000E+000
                   189  1.378638657594116E-004
                   190  7.234078376758913E-005
                   191  0.000000000000000E+000
                   192  8.728158014277346E-004
                   193 -1.963534096567093E-004
                   194  0.000000000000000E+000
                   195 -1.731995817400393E-006
                   196  0.000000000000000E+000
                   197  0.000000000000000E+000
                   198 -1.204950533909617E-005
                   199  4.276457848297544E-006
                   200  3.174015812379568E-005
                   201  0.000000000000000E+000
                   202  0.000000000000000E+000
                   203 -8.758745772359344E-005
                   204 -1.259662825005548E-004
                   205  0.000000000000000E+000
                   206 -4.505651116736815E-006
                   207 -7.007384417012958E-006
                   208  0.000000000000000E+000
                   209  0.000000000000000E+000
                   210  7.126536997926866E-006
                   211  6.523548036924213E-007
                   212 -1.167282942805536E-004
                   213  6.678655212766242E-005
                   214  1.318663434070729E-004
                   215  1.057104268107712E-004
                   216  0.000000000000000E+000
                   217 -5.319348098111890E-004
                   218 -1.370304510380089E-004
                   219 -1.394591554456030E-004
                   220  6.863406166611264E-005
                   221  0.000000000000000E+000
                   222 -2.832858916030083E-004
                   223 -7.365423633036286E-004
                   224  7.060602883888498E-006
                   225 -5.908851210612361E-005
                   226  0.000000000000000E+000
                   227 -1.572830446517306E-004
                   228 -6.533100581538185E-004
                   229 -1.120566564748037E-005
                   230 -3.002686439004715E-005
                   231  0.000000000000000E+000
                   232 -2.564343345898158E-005
                   233 -5.608018900886497E-004
                   234  5.808639546001180E-006
                   235 -5.693372326386285E-006
                   236  0.000000000000000E+000
                   237 -8.602116680344131E-005
                   238 -4.207238437205185E-004
                   239  4.499665212669856E-006
                   240  1.299584637167203E-006
                   241  0.000000000000000E+000
                   242  7.566079721920947E-006
                   243 -2.545699749793907E-005
                   244  6.488232093475935E-007
                   245  2.274339215769337E-005
                   246  0.000000000000000E+000
 Sym= __2_A'_
 Ene=   2.00000000000000     
 Spin= Alpha
 Occup=    1.00000000000000     
                     1 -5.896806762657759E-005
                     2 -3.622591834258312E-004
                     3  3.120394380315559E-003
                     4  1.750309899324285E-004
                     5  1.330975232697862E-003
                     6 -3.365741553938189E-005
                     7  2.815125365234557E-003
                     8  0.000000000000000E+000
                     9 -8.009328887348603E-006
                    10 -1.385125080752981E-004
                    11  0.000000000000000E+000
                    12  7.276656816797466E-006
                    13 -3.379368679495164E-004
                    14  0.000000000000000E+000
                    15  3.030796730672480E-005
                    16  0.000000000000000E+000
                    17  0.000000000000000E+000
                    18 -4.525017872313216E-005
                    19  6.474650575364636E-006
                    20 -1.059185382127731E-004
                    21  0.000000000000000E+000
                    22  0.000000000000000E+000
                    23  8.186106006391252E-005
                    24  2.682889917208960E-006
                    25  0.000000000000000E+000
                    26 -2.276165310580196E-006
                    27  8.613169640104847E-005
                    28  0.000000000000000E+000
                    29  0.000000000000000E+000
                    30 -4.395790507706273E-007
                    31  1.582810159311399E-004
                    32   1.00100221486276     
                    33  9.232898031815663E-003
                    34  2.769653659121150E-003
                    35 -8.155100041535933E-003
                    36 -5.862973720509948E-005
                    37 -3.634781019495043E-003
                    38  0.000000000000000E+000
                    39  9.752692418563944E-005
                    40  5.983777413957553E-004
                    41  0.000000000000000E+000
                    42  1.721552176016262E-005
                    43  4.241562323105127E-003
                    44  0.000000000000000E+000
                    45 -5.729932814502239E-004
                    46  0.000000000000000E+000
                    47  0.000000000000000E+000
                    48 -2.018390478267898E-004
                    49  3.067420195252680E-006
                    50  5.542949150871877E-004
                    51  0.000000000000000E+000
                    52  0.000000000000000E+000
                    53 -8.216040071821735E-004
                    54  2.678591299044311E-005
                    55  0.000000000000000E+000
                    56 -4.387885630411159E-006
                    57  9.213042656146447E-005
                    58  0.000000000000000E+000
                    59  0.000000000000000E+000
                    60  4.225554885908907E-006
                    61  3.932845590528317E-004
                    62  9.449505566091525E-003
                    63 -2.074087338127066E-003
                    64 -2.922005049900779E-004
                    65  3.042760698549813E-003
                    66 -2.074220552244966E-005
                    67  1.112243293739416E-004
                    68  0.000000000000000E+000
                    69  7.086395440457522E-004
                    70  3.481348994045584E-005
                    71  0.000000000000000E+000
                    72 -2.038321376072393E-003
                    73  7.003592401251025E-005
                    74  0.000000000000000E+000
                    75  2.852393270589287E-005
                    76  0.000000000000000E+000
                    77  0.000000000000000E+000
                    78 -2.906684123914858E-006
                    79  4.609836575210326E-006
                    80 -4.154096893930142E-004
                    81  0.000000000000000E+000
                    82  0.000000000000000E+000
                    83 -5.891179095944152E-004
                    84 -3.636621870526877E-004
                    85  0.000000000000000E+000
                    86  3.199338587127839E-005
                    87 -5.928645992257174E-005
                    88  0.000000000000000E+000
                    89  0.000000000000000E+000
                    90  4.934140893804668E-005
                    91  1.386677607829577E-004
                    92  9.566290160293627E-003
                    93 -2.046574606592012E-003
                    94 -2.784670631019763E-004
                    95  2.989224891175082E-003
                    96 -6.839627886238752E-006
                    97  8.349979202537426E-005
                    98  0.000000000000000E+000
                    99 -6.574912847437770E-004
                   100  7.372675186734591E-005
                   101  0.000000000000000E+000
                   102  2.045080144647279E-003
                   103  7.597700617149994E-005
                   104  0.000000000000000E+000
                   105  3.104013937375328E-005
                   106  0.000000000000000E+000
                   107  0.000000000000000E+000
                   108 -4.807005792739888E-006
                   109 -6.871972912558665E-006
                   110 -4.108599072834088E-004
                   111  0.000000000000000E+000
                   112  0.000000000000000E+000
                   113 -6.060097825591592E-004
                   114  3.476054407691532E-004
                   115  0.000000000000000E+000
                   116 -3.300152510221542E-005
                   117 -6.016744721556702E-005
                   118  0.000000000000000E+000
                   119  0.000000000000000E+000
                   120 -4.902353001501926E-005
                   121  1.382079529289454E-004
                   122 -1.538057757626593E-004
                   123 -6.757708390365632E-004
                   124  2.301004633696792E-004
                   125 -1.296374264541420E-004
                   126  2.294572946241171E-007
                   127 -3.448019680297225E-004
                   128  0.000000000000000E+000
                   129 -6.235152091677310E-005
                   130  5.506250295554406E-004
                   131  0.000000000000000E+000
                   132  3.195541925249178E-004
                   133  7.455716306619103E-004
                   134  0.000000000000000E+000
                   135  1.999562305034164E-005
                   136  0.000000000000000E+000
                   137  0.000000000000000E+000
                   138  4.140475985206366E-006
                   139  5.312673216807796E-005
                   140  1.370910212080369E-004
                   141  0.000000000000000E+000
                   142  0.000000000000000E+000
                   143  2.479303484636326E-004
                   144 -1.871971113279971E-004
                   145  0.000000000000000E+000
                   146  6.857045992889496E-006
                   147 -3.358383511427941E-005
                   148  0.000000000000000E+000
                   149  0.000000000000000E+000
                   150 -4.629428967910950E-005
                   151  2.707686787357956E-005
                   152 -1.573644235975735E-004
                   153 -6.822478268500179E-004
                   154  2.312566879848776E-004
                   155 -1.400475374415595E-004
                   156  2.497271461354914E-006
                   157 -3.383708646854878E-004
                   158  0.000000000000000E+000
                   159  5.598583895167151E-005
                   160  5.644979790418243E-004