[Molden Format]
[Atoms] AU
  N     1    7    -4.5082829200   -0.1342819900   -0.4228200100        
  C     2    6    -1.7496705200   -0.0824342700   -0.1838819400        
  C     3    6    -0.3491890900    0.2202010900   -2.3813599000        
  C     4    6    -0.4819141000   -0.3194027500    2.1144844200        
  C     5    6     2.2679837200    0.2851297300   -2.2867536700        
  C     6    6     2.1285900100   -0.2535069600    2.1993448600        
  C     7    6     3.5096699900    0.0491470500   -0.0030301700        
  H     8    1    -5.0474185900   -1.7582191400    0.5329298000        
  H     9    1    -5.1331481600    1.1861733600    0.8837931500        
  H    10    1    -1.3260875200    0.4019365300   -4.1451509600        
  H    11    1    -1.5448115400   -0.5543420500    3.8263524900        
  H    12    1     3.3318141500    0.5199799700   -3.9976458500        
  H    13    1     3.0845146800   -0.4378414600    3.9798216900        
  H    14    1     5.5368142800    0.0998677000    0.0666404700        
[5D]
[7F]
[GTO]
  1  0
   s    12 1.00
  0.114200D+05  0.172695D-04
  0.171200D+04  0.134411D-03
  0.389300D+03  0.694561D-03
  0.110000D+03  0.278531D-02
  0.355700D+02  0.863457D-02
  0.125400D+02  0.199805D-01
  0.464400D+01  0.262908D-01
  0.129300D+01 -0.243845D-01
  0.511800D+00 -0.924934D-01
  0.178700D+00 -0.339683D+00
  0.246240D-01  0.345111D+00
  0.112530D-01  0.752750D+00
   s    10 1.00
  0.114200D+05  0.523000D-03
  0.171200D+04  0.404500D-02
  0.389300D+03  0.207750D-01
  0.110000D+03  0.807269D-01
  0.355700D+02  0.233074D+00
  0.125400D+02  0.433501D+00
  0.464400D+01  0.347472D+00
  0.129300D+01  0.412620D-01
  0.511800D+00 -0.850799D-02
  0.178700D+00  0.238400D-02
   s    10 1.00
  0.114200D+05 -0.115000D-03
  0.171200D+04 -0.895000D-03
  0.389300D+03 -0.462400D-02
  0.110000D+03 -0.185280D-01
  0.355700D+02 -0.573390D-01
  0.125400D+02 -0.132076D+00
  0.464400D+01 -0.172510D+00
  0.129300D+01  0.151814D+00
  0.511800D+00  0.599944D+00
  0.178700D+00  0.387462D+00
   s     1 1.00
  0.129300D+01  0.100000D+01
   s     1 1.00
  0.178700D+00  0.100000D+01
   p     5 1.00
  0.266300D+02  0.146700D-01
  0.594800D+01  0.917640D-01
  0.174200D+01  0.298683D+00
  0.555000D+00  0.498487D+00
  0.172500D+00  0.337023D+00
   p     1 1.00
  0.174200D+01  0.100000D+01
   p     1 1.00
  0.555000D+00  0.100000D+01
   d     1 1.00
  0.165400D+01  0.100000D+01
   d     1 1.00
  0.469000D+00  0.100000D+01
   f     1 1.00
  0.109300D+01  0.100000D+01
  
  2  0
   s    10 1.00
  0.823600D+04  0.531000D-03
  0.123500D+04  0.410800D-02
  0.280800D+03  0.210870D-01
  0.792700D+02  0.818530D-01
  0.255900D+02  0.234817D+00
  0.899700D+01  0.434401D+00
  0.331900D+01  0.346129D+00
  0.905900D+00  0.393780D-01
  0.364300D+00 -0.898300D-02
  0.128500D+00  0.238500D-02
   s    10 1.00
  0.823600D+04 -0.113000D-03
  0.123500D+04 -0.878000D-03
  0.280800D+03 -0.454000D-02
  0.792700D+02 -0.181330D-01
  0.255900D+02 -0.557600D-01
  0.899700D+01 -0.126895D+00
  0.331900D+01 -0.170352D+00
  0.905900D+00  0.140382D+00
  0.364300D+00  0.598684D+00
  0.128500D+00  0.395389D+00
   s     1 1.00
  0.905900D+00  0.100000D+01
   s     1 1.00
  0.364300D+00  0.100000D+01
   p     5 1.00
  0.187100D+02  0.140310D-01
  0.413300D+01  0.868660D-01
  0.120000D+01  0.290216D+00
  0.382700D+00  0.501008D+00
  0.120900D+00  0.343406D+00
   p     1 1.00
  0.382700D+00  0.100000D+01
   p     1 1.00
  0.120900D+00  0.100000D+01
   d     1 1.00
  0.109700D+01  0.100000D+01
   d     1 1.00
  0.318000D+00  0.100000D+01
   f     1 1.00
  0.761000D+00  0.100000D+01
  
  3  0
   s    10 1.00
  0.823600D+04  0.531000D-03
  0.123500D+04  0.410800D-02
  0.280800D+03  0.210870D-01
  0.792700D+02  0.818530D-01
  0.255900D+02  0.234817D+00
  0.899700D+01  0.434401D+00
  0.331900D+01  0.346129D+00
  0.905900D+00  0.393780D-01
  0.364300D+00 -0.898300D-02
  0.128500D+00  0.238500D-02
   s    10 1.00
  0.823600D+04 -0.113000D-03
  0.123500D+04 -0.878000D-03
  0.280800D+03 -0.454000D-02
  0.792700D+02 -0.181330D-01
  0.255900D+02 -0.557600D-01
  0.899700D+01 -0.126895D+00
  0.331900D+01 -0.170352D+00
  0.905900D+00  0.140382D+00
  0.364300D+00  0.598684D+00
  0.128500D+00  0.395389D+00
   s     1 1.00
  0.905900D+00  0.100000D+01
   s     1 1.00
  0.364300D+00  0.100000D+01
   p     5 1.00
  0.187100D+02  0.140310D-01
  0.413300D+01  0.868660D-01
  0.120000D+01  0.290216D+00
  0.382700D+00  0.501008D+00
  0.120900D+00  0.343406D+00
   p     1 1.00
  0.382700D+00  0.100000D+01
   p     1 1.00
  0.120900D+00  0.100000D+01
   d     1 1.00
  0.109700D+01  0.100000D+01
   d     1 1.00
  0.318000D+00  0.100000D+01
   f     1 1.00
  0.761000D+00  0.100000D+01
  
  4  0
   s    10 1.00
  0.823600D+04  0.531000D-03
  0.123500D+04  0.410800D-02
  0.280800D+03  0.210870D-01
  0.792700D+02  0.818530D-01
  0.255900D+02  0.234817D+00
  0.899700D+01  0.434401D+00
  0.331900D+01  0.346129D+00
  0.905900D+00  0.393780D-01
  0.364300D+00 -0.898300D-02
  0.128500D+00  0.238500D-02
   s    10 1.00
  0.823600D+04 -0.113000D-03
  0.123500D+04 -0.878000D-03
  0.280800D+03 -0.454000D-02
  0.792700D+02 -0.181330D-01
  0.255900D+02 -0.557600D-01
  0.899700D+01 -0.126895D+00
  0.331900D+01 -0.170352D+00
  0.905900D+00  0.140382D+00
  0.364300D+00  0.598684D+00
  0.128500D+00  0.395389D+00
   s     1 1.00
  0.905900D+00  0.100000D+01
   s     1 1.00
  0.364300D+00  0.100000D+01
   p     5 1.00
  0.187100D+02  0.140310D-01
  0.413300D+01  0.868660D-01
  0.120000D+01  0.290216D+00
  0.382700D+00  0.501008D+00
  0.120900D+00  0.343406D+00
   p     1 1.00
  0.382700D+00  0.100000D+01
   p     1 1.00
  0.120900D+00  0.100000D+01
   d     1 1.00
  0.109700D+01  0.100000D+01
   d     1 1.00
  0.318000D+00  0.100000D+01
   f     1 1.00
  0.761000D+00  0.100000D+01
  
  5  0
   s    10 1.00
  0.823600D+04  0.531000D-03
  0.123500D+04  0.410800D-02
  0.280800D+03  0.210870D-01
  0.792700D+02  0.818530D-01
  0.255900D+02  0.234817D+00
  0.899700D+01  0.434401D+00
  0.331900D+01  0.346129D+00
  0.905900D+00  0.393780D-01
  0.364300D+00 -0.898300D-02
  0.128500D+00  0.238500D-02
   s    10 1.00
  0.823600D+04 -0.113000D-03
  0.123500D+04 -0.878000D-03
  0.280800D+03 -0.454000D-02
  0.792700D+02 -0.181330D-01
  0.255900D+02 -0.557600D-01
  0.899700D+01 -0.126895D+00
  0.331900D+01 -0.170352D+00
  0.905900D+00  0.140382D+00
  0.364300D+00  0.598684D+00
  0.128500D+00  0.395389D+00
   s     1 1.00
  0.905900D+00  0.100000D+01
   s     1 1.00
  0.364300D+00  0.100000D+01
   p     5 1.00
  0.187100D+02  0.140310D-01
  0.413300D+01  0.868660D-01
  0.120000D+01  0.290216D+00
  0.382700D+00  0.501008D+00
  0.120900D+00  0.343406D+00
   p     1 1.00
  0.382700D+00  0.100000D+01
   p     1 1.00
  0.120900D+00  0.100000D+01
   d     1 1.00
  0.109700D+01  0.100000D+01
   d     1 1.00
  0.318000D+00  0.100000D+01
   f     1 1.00
  0.761000D+00  0.100000D+01
  
  6  0
   s    10 1.00
  0.823600D+04  0.531000D-03
  0.123500D+04  0.410800D-02
  0.280800D+03  0.210870D-01
  0.792700D+02  0.818530D-01
  0.255900D+02  0.234817D+00
  0.899700D+01  0.434401D+00
  0.331900D+01  0.346129D+00
  0.905900D+00  0.393780D-01
  0.364300D+00 -0.898300D-02
  0.128500D+00  0.238500D-02
   s    10 1.00
  0.823600D+04 -0.113000D-03
  0.123500D+04 -0.878000D-03
  0.280800D+03 -0.454000D-02
  0.792700D+02 -0.181330D-01
  0.255900D+02 -0.557600D-01
  0.899700D+01 -0.126895D+00
  0.331900D+01 -0.170352D+00
  0.905900D+00  0.140382D+00
  0.364300D+00  0.598684D+00
  0.128500D+00  0.395389D+00
   s     1 1.00
  0.905900D+00  0.100000D+01
   s     1 1.00
  0.364300D+00  0.100000D+01
   p     5 1.00
  0.187100D+02  0.140310D-01
  0.413300D+01  0.868660D-01
  0.120000D+01  0.290216D+00
  0.382700D+00  0.501008D+00
  0.120900D+00  0.343406D+00
   p     1 1.00
  0.382700D+00  0.100000D+01
   p     1 1.00
  0.120900D+00  0.100000D+01
   d     1 1.00
  0.109700D+01  0.100000D+01
   d     1 1.00
  0.318000D+00  0.100000D+01
   f     1 1.00
  0.761000D+00  0.100000D+01
  
  7  0
   s    10 1.00
  0.823600D+04  0.531000D-03
  0.123500D+04  0.410800D-02
  0.280800D+03  0.210870D-01
  0.792700D+02  0.818530D-01
  0.255900D+02  0.234817D+00
  0.899700D+01  0.434401D+00
  0.331900D+01  0.346129D+00
  0.905900D+00  0.393780D-01
  0.364300D+00 -0.898300D-02
  0.128500D+00  0.238500D-02
   s    10 1.00
  0.823600D+04 -0.113000D-03
  0.123500D+04 -0.878000D-03
  0.280800D+03 -0.454000D-02
  0.792700D+02 -0.181330D-01
  0.255900D+02 -0.557600D-01
  0.899700D+01 -0.126895D+00
  0.331900D+01 -0.170352D+00
  0.905900D+00  0.140382D+00
  0.364300D+00  0.598684D+00
  0.128500D+00  0.395389D+00
   s     1 1.00
  0.905900D+00  0.100000D+01
   s     1 1.00
  0.364300D+00  0.100000D+01
   p     5 1.00
  0.187100D+02  0.140310D-01
  0.413300D+01  0.868660D-01
  0.120000D+01  0.290216D+00
  0.382700D+00  0.501008D+00
  0.120900D+00  0.343406D+00
   p     1 1.00
  0.382700D+00  0.100000D+01
   p     1 1.00
  0.120900D+00  0.100000D+01
   d     1 1.00
  0.109700D+01  0.100000D+01
   d     1 1.00
  0.318000D+00  0.100000D+01
   f     1 1.00
  0.761000D+00  0.100000D+01
  
  8  0
   s     4 1.00
  0.130100D+02  0.196850D-01
  0.196200D+01  0.137977D+00
  0.444600D+00  0.478148D+00
  0.122000D+00  0.501240D+00
   s     1 1.00
  0.122000D+00  0.100000D+01
   p     1 1.00
  0.727000D+00  0.100000D+01
  
  9  0
   s     4 1.00
  0.130100D+02  0.196850D-01
  0.196200D+01  0.137977D+00
  0.444600D+00  0.478148D+00
  0.122000D+00  0.501240D+00
   s     1 1.00
  0.122000D+00  0.100000D+01
   p     1 1.00
  0.727000D+00  0.100000D+01
  
 10  0
   s     4 1.00
  0.130100D+02  0.196850D-01
  0.196200D+01  0.137977D+00
  0.444600D+00  0.478148D+00
  0.122000D+00  0.501240D+00
   s     1 1.00
  0.122000D+00  0.100000D+01
   p     1 1.00
  0.727000D+00  0.100000D+01
  
 11  0
   s     4 1.00
  0.130100D+02  0.196850D-01
  0.196200D+01  0.137977D+00
  0.444600D+00  0.478148D+00
  0.122000D+00  0.501240D+00
   s     1 1.00
  0.122000D+00  0.100000D+01
   p     1 1.00
  0.727000D+00  0.100000D+01
  
 12  0
   s     4 1.00
  0.130100D+02  0.196850D-01
  0.196200D+01  0.137977D+00
  0.444600D+00  0.478148D+00
  0.122000D+00  0.501240D+00
   s     1 1.00
  0.122000D+00  0.100000D+01
   p     1 1.00
  0.727000D+00  0.100000D+01
  
 13  0
   s     4 1.00
  0.130100D+02  0.196850D-01
  0.196200D+01  0.137977D+00
  0.444600D+00  0.478148D+00
  0.122000D+00  0.501240D+00
   s     1 1.00
  0.122000D+00  0.100000D+01
   p     1 1.00
  0.727000D+00  0.100000D+01
  
 14  0
   s     4 1.00
  0.130100D+02  0.196850D-01
  0.196200D+01  0.137977D+00
  0.444600D+00  0.478148D+00
  0.122000D+00  0.501240D+00
   s     1 1.00
  0.122000D+00  0.100000D+01
   p     1 1.00
  0.727000D+00  0.100000D+01
  
[MO]
 Sym= __1_a__
 Ene=  0.000000000000000E+000
 Spin= Alpha
 Occup=    2.00000000000000     
                     1 -7.829080097364540E-004
                     2  0.997504245489117     
                     3 -3.974910690416210E-002
                     4  2.128732540748700E-003
                     5  4.456559036984470E-003
                     6  1.452122319728530E-002
                     7 -3.121756433227360E-003
                     8  2.974540834116480E-002
                     9 -1.321419563860460E-003
                    10  2.115791724786890E-004
                    11 -2.098414170515820E-003
                    12 -3.830482195132420E-003
                    13  5.670262155379920E-004
                    14 -5.694335850821670E-003
                    15  1.987881784545569E-004
                    16  1.083884788519650E-004
                    17 -4.499652673016740E-005
                    18  5.469360325761540E-005
                    19 -9.582957881578920E-006
                    20  8.477339622106104E-004
                    21  6.838957340300410E-004
                    22 -1.595545277457380E-004
                    23  2.105092631281480E-005
                    24 -7.978377734462760E-005
                    25  2.213966969919564E-005
                    26 -5.526766088732501E-005
                    27 -1.520721075009227E-006
                    28  3.230020499460500E-005
                    29  2.338790981189550E-005
                    30  7.299075303001456E-005
                    31 -1.132246232575315E-005
                    32 -6.041621151126950E-004
                    33  4.262698073203200E-004
                    34  2.027064970952570E-004
                    35  1.702591739093010E-004
                    36  1.185595510584750E-003
                    37  1.392029444830430E-004
                    38 -8.784861460458670E-004
                    39 -8.895048161240320E-004
                    40 -1.250915229272770E-005
                    41 -1.123703384249710E-004
                    42  2.676751626445330E-003
                    43  1.046953135190590E-004
                    44 -2.245611094130170E-004
                    45  6.715214910463688E-005
                    46 -4.208327490709350E-004
                    47 -1.590992033264280E-005
                    48 -8.883124297675719E-005
                    49  4.506845201012080E-005
                    50 -2.806308037982872E-004
                    51 -5.843051330719700E-004
                    52  2.328509839730850E-005
                    53  1.483925432936032E-004
                    54  7.825333658552140E-005
                    55  1.252651622903361E-004
                    56  5.409752613718312E-006
                    57  1.289283147924813E-005
                    58  1.281064542422574E-004
                    59  1.334325516231610E-006
                    60 -3.539516070676752E-005
                    61 -1.556765493075726E-005
                    62 -7.265465286319970E-004
                    63  1.044217209348050E-003
                    64 -1.151485502795030E-004
                    65  2.503273011921520E-003
                    66 -4.186813873977620E-003
                    67 -2.181497532132510E-004
                    68  8.076769400352770E-004
                    69  5.082808471279390E-004
                    70 -2.343158444866010E-005
                    71  3.208297058450010E-004
                    72  6.843189713850520E-004
                    73  3.147176207118450E-004
                    74 -2.473853920946130E-003
                    75  1.510204024871765E-004
                    76 -6.055127613245510E-005
                    77 -3.272196826981810E-005
                    78 -5.875579032415420E-006
                    79  6.992820792125400E-006
                    80 -1.268085039097131E-004
                    81 -3.570709526807870E-004
                    82  1.514860747791850E-005
                    83  5.831113276403460E-006
                    84  4.287253883410420E-005
                    85 -2.090014360930442E-005
                    86 -1.357498884287278E-004
                    87 -7.424402462884641E-006
                    88 -1.539494112792976E-005
                    89  1.484614952725790E-005
                    90 -6.880336395501456E-005
                    91  8.120549355289100E-006
                    92  1.585023337049820E-005
                    93 -1.435233481849460E-003
                    94  2.247052325843160E-004
                    95 -6.827989965448840E-004
                    96 -6.936695105579521E-005
                    97 -1.644009846686490E-004
                    98  1.362674259151180E-003
                    99 -8.060971488470540E-005
                   100  8.440251557182341E-006
                   101 -9.052060648156090E-005
                   102 -8.010697079009591E-004
                   103  7.068153569162730E-005
                   104 -7.888719528844740E-004
                   105 -6.476427006569805E-005
                   106  5.162195910467320E-006
                   107  6.383373755649010E-006
                   108  6.054519135039680E-005
                   109  2.890807576323880E-006
                   110  1.756549938790368E-004
                   111  4.628114261982940E-004
                   112 -8.909179800911160E-006
                   113 -1.156604049047346E-004
                   114 -6.190611875097180E-005
                   115 -3.525962002935800E-005
                   116 -1.392842793968609E-005
                   117 -4.941598266413879E-006
                   118 -3.141275957899640E-005
                   119  2.979153986988190E-006
                   120  1.462830603919611E-005
                   121  3.255283519403470E-006
                   122 -2.570498538931770E-004
                   123 -2.037941690302790E-003
                   124  1.471039865261120E-004
                   125  4.017768116516680E-004
                   126  2.168131749363470E-003
                   127  8.406625290115440E-005
                   128 -1.757077300592070E-004
                   129  3.662250650398300E-004
                   130 -2.411716639516610E-005
                   131  2.918639952728570E-004
                   132 -7.188758595216060E-005
                   133 -1.210194703200330E-004
                   134  9.980111905530809E-004
                   135  7.253442417253052E-005
                   136 -2.236668879817880E-005
                   137 -7.364146286662720E-006
                   138 -7.013816929433120E-005
                   139 -1.394516450640200E-006
                   140  1.849349345653599E-004
                   141  2.543774681890290E-006
                   142 -1.105260174205700E-005
                   143 -2.278714710201020E-004
                   144 -1.354666483847180E-005
                   145  1.203002427814813E-006
                   146 -3.408643872981177E-005
                   147 -5.555873433496489E-006
                   148  2.522540428015340E-005
                   149 -2.472568903401060E-006
                   150 -7.084620716380744E-005
                   151  2.484690304967597E-006
                   152 -9.468264930112500E-005
                   153 -3.454768254605880E-005
                   154 -7.117929568490080E-005
                   155  8.007789082939380E-004
                   156  4.258390975101360E-004
                   157 -1.493396017601920E-005
                   158  2.293685207786740E-004
                   159 -3.742223922630660E-004
                   160  3.584437738770620E-006
                   161 -1.215144076861490E-004
                   162  4.058287047132600E-004
                   163 -1.098665612429650E-004
                   164  1.021143640160040E-003
                   165  8.220716809169097E-006
                   166 -1.814601995046810E-005
                   167 -4.449923859298920E-006
                   168  1.804535316553190E-005
                   169  3.231235575788270E-006
                   170 -7.457959543734512E-005
                   171  6.098296254412840E-006
                   172  3.295366247842770E-005
                   173 -1.416865635996472E-004
                   174 -9.098306061194080E-006
                   175  8.888600887348600E-006
                   176 -2.040476883332100E-005
                   177  7.863071644220330E-007
                   178  6.511151242021260E-006
                   179  2.721236107621280E-006
                   180 -1.054687275690684E-005
                   181 -4.138083578596990E-008
                   182 -9.599579398510960E-005
                   183 -2.081766828495270E-005
                   184  2.130778924339890E-005
                   185  2.188354469763480E-004
                   186 -2.963587918598570E-004
                   187  9.475316669499051E-006
                   188 -1.519283598905820E-004
                   189  1.368683672961550E-004
                   190 -3.559646962389270E-005
                   191  3.321680676057360E-004
                   192 -4.222225317621980E-004
                   193 -1.883416396308990E-005
                   194  5.488577924996650E-005
                   195  3.435773296815196E-005
                   196 -1.894891782902990E-005
                   197 -5.791438559402950E-006
                   198 -1.626661224877404E-005
                   199  1.331950753574870E-006
                   200 -1.453242833220389E-006
                   201 -1.406768490617440E-004
                   202 -5.481319810959480E-007
                   203 -2.777410273675220E-005
                   204  1.516092701017570E-005
                   205 -3.210349999686552E-006
                   206  5.407271606048701E-006
                   207 -1.895714878238112E-006
                   208  5.590785948202880E-006
                   209 -1.477263676196660E-006
                   210 -5.310834470533640E-006
                   211 -3.606892839150929E-007
                   212 -3.480100177856160E-003
                   213  2.485449230508110E-003
                   214  1.480717825705330E-004
                   215 -2.532508682817680E-004
                   216  5.209498567146240E-004
                   217 -3.480100876598890E-003
                   218  2.485449393665430E-003
                   219  1.368569010739400E-004
                   220  1.319214323906350E-004
                   221  5.668482643809120E-004
                   222  2.290512636694790E-003
                   223 -2.424731622627940E-003
                   224  3.731063984907860E-005
                   225 -1.702716465166320E-005
                   226  1.520062982800090E-004
                   227  3.584327814498910E-004
                   228  5.709489527015060E-004
                   229 -6.175204574296911E-005
                   230  1.119065215112030E-005
                   231 -1.089974604599590E-004
                   232  9.101144585587730E-004
                   233  3.936664243090590E-004
                   234  6.045365240258140E-006
                   235 -5.629293256191250E-006
                   236  4.871749826838510E-005
                   237  3.129804369631560E-004
                   238 -9.050673567438700E-004
                   239 -5.308123815427450E-005
                   240  2.825172777422440E-006
                   241 -3.667892877146410E-005
                   242 -4.034284601807680E-004
                   243  2.644255428219270E-004
                   244  3.120259512495380E-005
                   245  1.586093658217190E-006
                   246 -5.686603338942860E-006
 Sym= __2_a__
 Ene=  0.000000000000000E+000
 Spin= Alpha
 Occup=    2.00000000000000     
                     1 -6.598350022509950E-005
                     2  2.369457711177130E-004
                     3 -1.831239914737240E-003
                     4 -7.358169755484280E-006
                     5  9.845148407203899E-004
                     6  1.604306827154990E-003
                     7 -1.506316527378360E-004
                     8  1.656074494065770E-003
                     9 -1.615884184621600E-004
                    10  1.571895669758140E-005
                    11 -1.713937533655910E-004
                    12  1.353922504575540E-004
                    13  2.543739001340820E-005
                    14 -1.803847771929260E-004
                    15 -3.962932463641522E-005
                    16  3.512707901372860E-005
                    17  3.245044935660970E-006
                    18  5.041427091016940E-005
                    19 -1.262418982623860E-006
                    20  9.107615534404368E-005
                    21 -5.928360269829340E-005
                    22 -3.126078208954670E-005
                    23  8.602347214879360E-005
                    24  1.219238097380400E-005
                    25 -3.312263871133357E-005
                    26  1.275276165698957E-004
                    27  6.281673616938025E-006
                    28 -6.350372450706840E-005
                    29 -1.040191678755050E-005
                    30  1.199617201092306E-004
                    31 -1.083907707537619E-006
                    32   1.00083719541938     
                    33  8.408950319171000E-003
                    34  2.858877110927320E-003
                    35 -8.438125113050121E-003
                    36 -1.037802210409240E-003
                    37 -4.490810816054230E-005
                    38  1.232857184037890E-004
                    39  7.814585879446680E-004
                    40  8.371120007736410E-005
                    41 -5.115501985823901E-004
                    42  2.324614013559650E-003
                    43  4.905309062274180E-006
                    44  5.268292810022269E-004
                    45  3.307731578908600E-004
                    46 -2.982584743784120E-005
                    47 -1.056952758833380E-004
                    48  2.935683586463960E-004
                    49  2.103390273269480E-005
                    50 -1.034094726043162E-003
                    51 -4.500519073446530E-004
                    52  2.172885413208360E-004
                    53 -1.177692864511232E-004
                    54  4.605664103765280E-005
                    55 -2.176557601181220E-005
                    56  2.511637598618121E-004
                    57  7.236320480976345E-006
                    58 -3.078957532595860E-005
                    59 -4.044629225739600E-005
                    60  6.381637664959824E-005
                    61 -7.301739787233825E-007
                    62  1.621011170535600E-002
                    63 -1.203808150562390E-003
                    64 -2.885687579198630E-004
                    65  2.703560958436020E-003
                    66 -5.670993007525199E-004
                    67 -7.766695861842330E-005
                    68  5.132054499979740E-004
                    69  2.284715849987400E-005
                    70 -2.876199020491550E-005
                    71  2.469486986301040E-004
                    72  1.270509125902490E-004
                    73  2.167924632277140E-004
                    74 -1.788248033868320E-003
                    75  2.393294128583100E-005
                    76  2.576583435633200E-005
                    77  2.251811234686600E-006
                    78 -5.360495941773680E-005
                    79 -6.204987729147530E-006
                    80 -5.886024479032706E-004
                    81 -3.984217678752220E-004
                    82  1.229727930565150E-005
                    83  8.176339072120760E-004
                    84  9.512868198769849E-005
                    85  3.360235644411916E-005
                    86  1.061254625619531E-004
                    87  1.979191749778912E-005
                    88 -3.171483356213640E-005
                    89 -2.619521478511730E-005
                    90 -2.601622992101637E-005
                    91  7.303487175684146E-006
                    92  1.898539592150060E-002
                    93 -1.751171985164650E-003
                    94 -3.496477984278060E-004
                    95  3.447299931566210E-003
                    96 -3.068022035070940E-004
                    97  2.816363276572780E-005
                    98 -3.113089938014050E-004
                    99 -1.420435468749900E-004
                   100  9.618395185832690E-005
                   101 -8.418682174902930E-004
                   102  4.596652360294630E-004
                   103 -1.602513207582740E-004
                   104  1.457121288456580E-003
                   105  1.104496311641661E-005
                   106 -8.778561864734200E-007
                   107  2.541754821616720E-007
                   108 -2.141376212156620E-005
                   109 -1.144214739455530E-006
                   110 -1.279471623701405E-004
                   111  5.591407272212100E-004
                   112 -3.066162555735630E-005
                   113  6.127779422245500E-004
                   114 -3.086581739649170E-005
                   115 -4.418217978974828E-005
                   116  7.717052966892985E-005
                   117 -1.397290237811017E-005
                   118  1.552453378896566E-005
                   119 -1.781881737573700E-005
                   120 -2.734654790665557E-005
                   121  1.211443113743914E-007
                   122 -2.839848978705470E-005
                   123 -7.916301034337250E-004
                   124  2.469259126578760E-004
                   125 -4.603248593046010E-004
                   126  7.057314219187631E-005
                   127  9.614963206955689E-006
                   128 -6.344587547686920E-005
                   129  6.183715141150769E-004
                   130  1.088962884636570E-005
                   131  5.971450805321390E-005
                   132  1.244697217577280E-004
                   133 -4.777612670461770E-005
                   134  4.313472689301770E-004
                   135  3.956579707168908E-006
                   136  3.396968118731940E-005
                   137  5.405196321597270E-006
                   138 -4.307689577783560E-005
                   139 -6.580769346105210E-006
                   140  1.829688712351045E-004
                   141 -3.201179600158740E-004
                   142 -2.214118422127380E-005
                   143 -2.127065248790000E-004
                   144  2.585952954289010E-005
                   145 -5.014390672944874E-006
                   146  1.033032494347280E-005
                   147 -1.567227779563756E-006
                   148  2.048481857094860E-006
                   149 -4.545798181885760E-006
                   150 -1.815633415977978E-005
                   151  1.310866523523715E-006
                   152  8.241141906015720E-005
                   153 -7.761854583237180E-004
                   154  2.278273046437900E-004
                   155 -1.175021274463010E-004
                   156 -3.802746528702940E-005
                   157 -7.919842495781960E-006
                   158  5.717147233085790E-005
                   159  4.671344470626970E-004
                   160  1.691186973302630E-005