[Molden Format]
[Atoms] AU
  N     1    7     0.0000000000   -4.2907334100    0.0000000000        
  C     2    6     0.0000000000   -1.7772236300    0.0000000000        
  C     3    6    -2.3389203600   -0.4111016300    0.0000000000        
  C     4    6     2.3389203600   -0.4111016300    0.0000000000        
  C     5    6    -2.2998668500    2.1639215300    0.0000000000        
  C     6    6     2.2998668500    2.1639215300    0.0000000000        
  C     7    6     0.0000000000    3.4755251800    0.0000000000        
  H     8    1    -2.2516208400   -5.6797945000    0.0000000000        
  H     9    1     1.9299607200   -5.4813572000    0.0000000000        
  H    10    1    -4.0745407300   -1.4447408500    0.0000000000        
  H    11    1     4.0745407300   -1.4447408500    0.0000000000        
  H    12    1    -4.0420632100    3.1963889500    0.0000000000        
  H    13    1     4.0420632100    3.1963889500    0.0000000000        
  H    14    1     0.0000000000    5.5020335600    0.0000000000        
[5D]
[7F]
[GTO]
  1  0
   s    12 1.00
  0.114200D+05  0.172695D-04
  0.171200D+04  0.134411D-03
  0.389300D+03  0.694561D-03
  0.110000D+03  0.278531D-02
  0.355700D+02  0.863457D-02
  0.125400D+02  0.199805D-01
  0.464400D+01  0.262908D-01
  0.129300D+01 -0.243845D-01
  0.511800D+00 -0.924934D-01
  0.178700D+00 -0.339683D+00
  0.246240D-01  0.345111D+00
  0.112530D-01  0.752750D+00
   s    10 1.00
  0.114200D+05  0.523000D-03
  0.171200D+04  0.404500D-02
  0.389300D+03  0.207750D-01
  0.110000D+03  0.807269D-01
  0.355700D+02  0.233074D+00
  0.125400D+02  0.433501D+00
  0.464400D+01  0.347472D+00
  0.129300D+01  0.412620D-01
  0.511800D+00 -0.850799D-02
  0.178700D+00  0.238400D-02
   s    10 1.00
  0.114200D+05 -0.115000D-03
  0.171200D+04 -0.895000D-03
  0.389300D+03 -0.462400D-02
  0.110000D+03 -0.185280D-01
  0.355700D+02 -0.573390D-01
  0.125400D+02 -0.132076D+00
  0.464400D+01 -0.172510D+00
  0.129300D+01  0.151814D+00
  0.511800D+00  0.599944D+00
  0.178700D+00  0.387462D+00
   s     1 1.00
  0.129300D+01  0.100000D+01
   s     1 1.00
  0.178700D+00  0.100000D+01
   p     5 1.00
  0.266300D+02  0.146700D-01
  0.594800D+01  0.917640D-01
  0.174200D+01  0.298683D+00
  0.555000D+00  0.498487D+00
  0.172500D+00  0.337023D+00
   p     1 1.00
  0.174200D+01  0.100000D+01
   p     1 1.00
  0.555000D+00  0.100000D+01
   d     1 1.00
  0.165400D+01  0.100000D+01
   d     1 1.00
  0.469000D+00  0.100000D+01
   f     1 1.00
  0.109300D+01  0.100000D+01
  
  2  0
   s    10 1.00
  0.823600D+04  0.531000D-03
  0.123500D+04  0.410800D-02
  0.280800D+03  0.210870D-01
  0.792700D+02  0.818530D-01
  0.255900D+02  0.234817D+00
  0.899700D+01  0.434401D+00
  0.331900D+01  0.346129D+00
  0.905900D+00  0.393780D-01
  0.364300D+00 -0.898300D-02
  0.128500D+00  0.238500D-02
   s    10 1.00
  0.823600D+04 -0.113000D-03
  0.123500D+04 -0.878000D-03
  0.280800D+03 -0.454000D-02
  0.792700D+02 -0.181330D-01
  0.255900D+02 -0.557600D-01
  0.899700D+01 -0.126895D+00
  0.331900D+01 -0.170352D+00
  0.905900D+00  0.140382D+00
  0.364300D+00  0.598684D+00
  0.128500D+00  0.395389D+00
   s     1 1.00
  0.905900D+00  0.100000D+01
   s     1 1.00
  0.364300D+00  0.100000D+01
   p     5 1.00
  0.187100D+02  0.140310D-01
  0.413300D+01  0.868660D-01
  0.120000D+01  0.290216D+00
  0.382700D+00  0.501008D+00
  0.120900D+00  0.343406D+00
   p     1 1.00
  0.382700D+00  0.100000D+01
   p     1 1.00
  0.120900D+00  0.100000D+01
   d     1 1.00
  0.109700D+01  0.100000D+01
   d     1 1.00
  0.318000D+00  0.100000D+01
   f     1 1.00
  0.761000D+00  0.100000D+01
  
  3  0
   s    10 1.00
  0.823600D+04  0.531000D-03
  0.123500D+04  0.410800D-02
  0.280800D+03  0.210870D-01
  0.792700D+02  0.818530D-01
  0.255900D+02  0.234817D+00
  0.899700D+01  0.434401D+00
  0.331900D+01  0.346129D+00
  0.905900D+00  0.393780D-01
  0.364300D+00 -0.898300D-02
  0.128500D+00  0.238500D-02
   s    10 1.00
  0.823600D+04 -0.113000D-03
  0.123500D+04 -0.878000D-03
  0.280800D+03 -0.454000D-02
  0.792700D+02 -0.181330D-01
  0.255900D+02 -0.557600D-01
  0.899700D+01 -0.126895D+00
  0.331900D+01 -0.170352D+00
  0.905900D+00  0.140382D+00
  0.364300D+00  0.598684D+00
  0.128500D+00  0.395389D+00
   s     1 1.00
  0.905900D+00  0.100000D+01
   s     1 1.00
  0.364300D+00  0.100000D+01
   p     5 1.00
  0.187100D+02  0.140310D-01
  0.413300D+01  0.868660D-01
  0.120000D+01  0.290216D+00
  0.382700D+00  0.501008D+00
  0.120900D+00  0.343406D+00
   p     1 1.00
  0.382700D+00  0.100000D+01
   p     1 1.00
  0.120900D+00  0.100000D+01
   d     1 1.00
  0.109700D+01  0.100000D+01
   d     1 1.00
  0.318000D+00  0.100000D+01
   f     1 1.00
  0.761000D+00  0.100000D+01
  
  4  0
   s    10 1.00
  0.823600D+04  0.531000D-03
  0.123500D+04  0.410800D-02
  0.280800D+03  0.210870D-01
  0.792700D+02  0.818530D-01
  0.255900D+02  0.234817D+00
  0.899700D+01  0.434401D+00
  0.331900D+01  0.346129D+00
  0.905900D+00  0.393780D-01
  0.364300D+00 -0.898300D-02
  0.128500D+00  0.238500D-02
   s    10 1.00
  0.823600D+04 -0.113000D-03
  0.123500D+04 -0.878000D-03
  0.280800D+03 -0.454000D-02
  0.792700D+02 -0.181330D-01
  0.255900D+02 -0.557600D-01
  0.899700D+01 -0.126895D+00
  0.331900D+01 -0.170352D+00
  0.905900D+00  0.140382D+00
  0.364300D+00  0.598684D+00
  0.128500D+00  0.395389D+00
   s     1 1.00
  0.905900D+00  0.100000D+01
   s     1 1.00
  0.364300D+00  0.100000D+01
   p     5 1.00
  0.187100D+02  0.140310D-01
  0.413300D+01  0.868660D-01
  0.120000D+01  0.290216D+00
  0.382700D+00  0.501008D+00
  0.120900D+00  0.343406D+00
   p     1 1.00
  0.382700D+00  0.100000D+01
   p     1 1.00
  0.120900D+00  0.100000D+01
   d     1 1.00
  0.109700D+01  0.100000D+01
   d     1 1.00
  0.318000D+00  0.100000D+01
   f     1 1.00
  0.761000D+00  0.100000D+01
  
  5  0
   s    10 1.00
  0.823600D+04  0.531000D-03
  0.123500D+04  0.410800D-02
  0.280800D+03  0.210870D-01
  0.792700D+02  0.818530D-01
  0.255900D+02  0.234817D+00
  0.899700D+01  0.434401D+00
  0.331900D+01  0.346129D+00
  0.905900D+00  0.393780D-01
  0.364300D+00 -0.898300D-02
  0.128500D+00  0.238500D-02
   s    10 1.00
  0.823600D+04 -0.113000D-03
  0.123500D+04 -0.878000D-03
  0.280800D+03 -0.454000D-02
  0.792700D+02 -0.181330D-01
  0.255900D+02 -0.557600D-01
  0.899700D+01 -0.126895D+00
  0.331900D+01 -0.170352D+00
  0.905900D+00  0.140382D+00
  0.364300D+00  0.598684D+00
  0.128500D+00  0.395389D+00
   s     1 1.00
  0.905900D+00  0.100000D+01
   s     1 1.00
  0.364300D+00  0.100000D+01
   p     5 1.00
  0.187100D+02  0.140310D-01
  0.413300D+01  0.868660D-01
  0.120000D+01  0.290216D+00
  0.382700D+00  0.501008D+00
  0.120900D+00  0.343406D+00
   p     1 1.00
  0.382700D+00  0.100000D+01
   p     1 1.00
  0.120900D+00  0.100000D+01
   d     1 1.00
  0.109700D+01  0.100000D+01
   d     1 1.00
  0.318000D+00  0.100000D+01
   f     1 1.00
  0.761000D+00  0.100000D+01
  
  6  0
   s    10 1.00
  0.823600D+04  0.531000D-03
  0.123500D+04  0.410800D-02
  0.280800D+03  0.210870D-01
  0.792700D+02  0.818530D-01
  0.255900D+02  0.234817D+00
  0.899700D+01  0.434401D+00
  0.331900D+01  0.346129D+00
  0.905900D+00  0.393780D-01
  0.364300D+00 -0.898300D-02
  0.128500D+00  0.238500D-02
   s    10 1.00
  0.823600D+04 -0.113000D-03
  0.123500D+04 -0.878000D-03
  0.280800D+03 -0.454000D-02
  0.792700D+02 -0.181330D-01
  0.255900D+02 -0.557600D-01
  0.899700D+01 -0.126895D+00
  0.331900D+01 -0.170352D+00
  0.905900D+00  0.140382D+00
  0.364300D+00  0.598684D+00
  0.128500D+00  0.395389D+00
   s     1 1.00
  0.905900D+00  0.100000D+01
   s     1 1.00
  0.364300D+00  0.100000D+01
   p     5 1.00
  0.187100D+02  0.140310D-01
  0.413300D+01  0.868660D-01
  0.120000D+01  0.290216D+00
  0.382700D+00  0.501008D+00
  0.120900D+00  0.343406D+00
   p     1 1.00
  0.382700D+00  0.100000D+01
   p     1 1.00
  0.120900D+00  0.100000D+01
   d     1 1.00
  0.109700D+01  0.100000D+01
   d     1 1.00
  0.318000D+00  0.100000D+01
   f     1 1.00
  0.761000D+00  0.100000D+01
  
  7  0
   s    10 1.00
  0.823600D+04  0.531000D-03
  0.123500D+04  0.410800D-02
  0.280800D+03  0.210870D-01
  0.792700D+02  0.818530D-01
  0.255900D+02  0.234817D+00
  0.899700D+01  0.434401D+00
  0.331900D+01  0.346129D+00
  0.905900D+00  0.393780D-01
  0.364300D+00 -0.898300D-02
  0.128500D+00  0.238500D-02
   s    10 1.00
  0.823600D+04 -0.113000D-03
  0.123500D+04 -0.878000D-03
  0.280800D+03 -0.454000D-02
  0.792700D+02 -0.181330D-01
  0.255900D+02 -0.557600D-01
  0.899700D+01 -0.126895D+00
  0.331900D+01 -0.170352D+00
  0.905900D+00  0.140382D+00
  0.364300D+00  0.598684D+00
  0.128500D+00  0.395389D+00
   s     1 1.00
  0.905900D+00  0.100000D+01
   s     1 1.00
  0.364300D+00  0.100000D+01
   p     5 1.00
  0.187100D+02  0.140310D-01
  0.413300D+01  0.868660D-01
  0.120000D+01  0.290216D+00
  0.382700D+00  0.501008D+00
  0.120900D+00  0.343406D+00
   p     1 1.00
  0.382700D+00  0.100000D+01
   p     1 1.00
  0.120900D+00  0.100000D+01
   d     1 1.00
  0.109700D+01  0.100000D+01
   d     1 1.00
  0.318000D+00  0.100000D+01
   f     1 1.00
  0.761000D+00  0.100000D+01
  
  8  0
   s     4 1.00
  0.130100D+02  0.196850D-01
  0.196200D+01  0.137977D+00
  0.444600D+00  0.478148D+00
  0.122000D+00  0.501240D+00
   s     1 1.00
  0.122000D+00  0.100000D+01
   p     1 1.00
  0.727000D+00  0.100000D+01
  
  9  0
   s     4 1.00
  0.130100D+02  0.196850D-01
  0.196200D+01  0.137977D+00
  0.444600D+00  0.478148D+00
  0.122000D+00  0.501240D+00
   s     1 1.00
  0.122000D+00  0.100000D+01
   p     1 1.00
  0.727000D+00  0.100000D+01
  
 10  0
   s     4 1.00
  0.130100D+02  0.196850D-01
  0.196200D+01  0.137977D+00
  0.444600D+00  0.478148D+00
  0.122000D+00  0.501240D+00
   s     1 1.00
  0.122000D+00  0.100000D+01
   p     1 1.00
  0.727000D+00  0.100000D+01
  
 11  0
   s     4 1.00
  0.130100D+02  0.196850D-01
  0.196200D+01  0.137977D+00
  0.444600D+00  0.478148D+00
  0.122000D+00  0.501240D+00
   s     1 1.00
  0.122000D+00  0.100000D+01
   p     1 1.00
  0.727000D+00  0.100000D+01
  
 12  0
   s     4 1.00
  0.130100D+02  0.196850D-01
  0.196200D+01  0.137977D+00
  0.444600D+00  0.478148D+00
  0.122000D+00  0.501240D+00
   s     1 1.00
  0.122000D+00  0.100000D+01
   p     1 1.00
  0.727000D+00  0.100000D+01
  
 13  0
   s     4 1.00
  0.130100D+02  0.196850D-01
  0.196200D+01  0.137977D+00
  0.444600D+00  0.478148D+00
  0.122000D+00  0.501240D+00
   s     1 1.00
  0.122000D+00  0.100000D+01
   p     1 1.00
  0.727000D+00  0.100000D+01
  
 14  0
   s     4 1.00
  0.130100D+02  0.196850D-01
  0.196200D+01  0.137977D+00
  0.444600D+00  0.478148D+00
  0.122000D+00  0.501240D+00
   s     1 1.00
  0.122000D+00  0.100000D+01
   p     1 1.00
  0.727000D+00  0.100000D+01
  
[MO]
 Sym= __1_A'_
 Ene=   1.00000000000000     
 Spin= Alpha
 Occup=    1.00000000000000     
                     1  1.014484340125119E-005
                     2  0.998653574055370     
                     3  2.105760928353899E-003
                     4  1.477404633950253E-003
                     5  4.059255313733084E-003
                     6  2.290175027994570E-003
                     7  6.003410742781039E-003
                     8  0.000000000000000E+000
                     9 -4.744718912129903E-004
                    10 -4.568486417172714E-004
                    11  0.000000000000000E+000
                    12 -1.476803266300413E-003
                    13 -1.509984637197515E-003
                    14  0.000000000000000E+000
                    15 -8.750654493910031E-005
                    16  0.000000000000000E+000
                    17  0.000000000000000E+000
                    18 -2.282218558431344E-004
                    19 -2.421496418076851E-005
                    20  2.779319645254284E-004
                    21  0.000000000000000E+000
                    22  0.000000000000000E+000
                    23 -2.746577189082566E-004
                    24  2.948176345785950E-004
                    25  0.000000000000000E+000
                    26  1.290221733482335E-006
                    27 -5.791726113580090E-005
                    28  0.000000000000000E+000
                    29  0.000000000000000E+000
                    30  1.239610745287859E-005
                    31 -9.093410633667415E-005
                    32 -2.869497736611682E-004
                    33  1.519837325033741E-003
                    34  2.097918119733503E-004
                    35 -2.440762596328513E-004
                    36 -1.335208681784153E-004
                    37 -4.579719669906194E-003
                    38  0.000000000000000E+000
                    39  3.245288931331428E-004
                    40  1.104412343369406E-004
                    41  0.000000000000000E+000
                    42 -1.345377802310864E-003
                    43  5.072849509206724E-003
                    44  0.000000000000000E+000
                    45 -2.459662092300623E-005
                    46  0.000000000000000E+000
                    47  0.000000000000000E+000
                    48 -2.442184199049866E-004
                    49 -1.244327519654483E-005
                    50 -3.030715383256995E-004
                    51  0.000000000000000E+000
                    52  0.000000000000000E+000
                    53  3.393903049124650E-005
                    54  4.593541975822300E-004
                    55  0.000000000000000E+000
                    56 -1.102842969566352E-005
                    57 -3.613977487832665E-005
                    58  0.000000000000000E+000
                    59  0.000000000000000E+000
                    60  1.115908100365011E-006
                    61 -1.155259571073984E-004
                    62 -3.961060987918213E-004
                    63 -1.828911537039927E-003
                    64 -3.988368845081933E-005
                    65  1.533682675796097E-003
                    66 -5.971135412530370E-004
                    67  4.283637225709224E-004
                    68  0.000000000000000E+000
                    69  2.694622544373085E-004
                    70  6.995135568555731E-004
                    71  0.000000000000000E+000
                    72 -1.398448639506595E-003
                    73  3.585464993968793E-004
                    74  0.000000000000000E+000
                    75 -3.275749284039023E-005
                    76  0.000000000000000E+000
                    77  0.000000000000000E+000
                    78 -7.267961700607634E-005
                    79 -2.105511004960162E-005
                    80 -9.909759911806794E-005
                    81  0.000000000000000E+000
                    82  0.000000000000000E+000
                    83  4.331436956505316E-005
                    84  7.240442810122399E-005
                    85  0.000000000000000E+000
                    86  1.009153987972767E-005
                    87 -4.340946216508396E-005
                    88  0.000000000000000E+000
                    89  0.000000000000000E+000
                    90 -2.227480950715424E-005
                    91 -1.291195675027109E-004
                    92 -1.765414766210836E-004
                    93 -1.144542856718467E-003
                    94  1.485021898593838E-004
                    95  7.562453803952223E-005
                    96  5.495640146183290E-004
                    97  5.779951617228920E-004
                    98  0.000000000000000E+000
                    99  2.643330137860204E-004
                   100  4.101652065924432E-004
                   101  0.000000000000000E+000
                   102  6.355813561141205E-004
                   103 -9.301959692904821E-004
                   104  0.000000000000000E+000
                   105 -9.469867644531222E-006
                   106  0.000000000000000E+000
                   107  0.000000000000000E+000
                   108 -6.575824694037410E-005
                   109 -9.220887323552176E-006
                   110  7.596422726647320E-005
                   111  0.000000000000000E+000
                   112  0.000000000000000E+000
                   113 -7.985056035713593E-005
                   114 -5.828657633835523E-005
                   115  0.000000000000000E+000
                   116 -2.121341813993709E-005
                   117 -3.505902485493208E-005
                   118  0.000000000000000E+000
                   119  0.000000000000000E+000
                   120  1.918705573924762E-005
                   121 -5.248021900993693E-005
                   122 -2.399608290882426E-004
                   123 -4.923824682067082E-004
                   124  1.474012429424104E-004
                   125  3.420839946259215E-004
                   126 -4.182163194294427E-006
                   127 -4.845619420541019E-004
                   128  0.000000000000000E+000
                   129  1.595647940153398E-004
                   130  4.963758591189181E-004
                   131  0.000000000000000E+000
                   132  1.366160552641896E-004
                   133  1.488101928851587E-003
                   134  0.000000000000000E+000
                   135  1.039793624108563E-005
                   136  0.000000000000000E+000
                   137  0.000000000000000E+000
                   138  3.538797388302800E-005
                   139 -1.852514379609374E-006
                   140  1.698544946706185E-004
                   141  0.000000000000000E+000
                   142  0.000000000000000E+000
                   143  2.783208251884626E-004
                   144  1.970818156544137E-004
                   145  0.000000000000000E+000
                   146 -8.173839011682685E-006
                   147 -4.929492653380485E-005
                   148  0.000000000000000E+000
                   149  0.000000000000000E+000
                   150 -8.148774080849543E-006
                   151 -3.988618462855175E-005
                   152 -1.855836576446919E-004
                   153 -3.102077742227555E-004
                   154  6.549407053655231E-005
                   155  3.522851847183260E-004
                   156 -1.882845759461171E-005
                   157 -4.594199991495760E-004
                   158  0.000000000000000E+000
                   159 -3.102083478326304E-005
                   160  1.588961581918981E-004
                   161  0.000000000000000E+000
                   162  5.041841396088825E-004
                   163  1.456854359182358E-004
                   164  0.000000000000000E+000
                   165  1.356564902619682E-006
                   166  0.000000000000000E+000
                   167  0.000000000000000E+000
                   168  4.649290815152634E-006
                   169  4.447615534732404E-006
                   170  8.348444410337121E-005
                   171  0.000000000000000E+000
                   172  0.000000000000000E+000
                   173  7.295057844067365E-005
                   174 -6.829050157385101E-005
                   175  0.000000000000000E+000
                   176  5.602019286079503E-006
                   177 -1.785939175853664E-005
                   178  0.000000000000000E+000
                   179  0.000000000000000E+000
                   180 -1.651441767846289E-005
                   181 -1.621155251160510E-005
                   182 -1.573076631582637E-004
                   183 -4.451445571417032E-004
                   184  4.847065659121280E-005
                   185  2.261948008236780E-004
                   186 -2.352558903364296E-005
                   187 -5.090035798556836E-005
                   188  0.000000000000000E+000
                   189  1.196746160997099E-004
                   190  5.343206310292282E-005
                   191  0.000000000000000E+000
                   192  7.583266607147585E-004
                   193 -9.709067909175159E-005
                   194  0.000000000000000E+000
                   195 -1.969285822822878E-006
                   196  0.000000000000000E+000
                   197  0.000000000000000E+000
                   198 -1.447904264471767E-005
                   199  3.842252956071440E-006
                   200  2.792791862056648E-005
                   201  0.000000000000000E+000
                   202  0.000000000000000E+000
                   203 -7.743000183698552E-005
                   204 -1.062484892236696E-004
                   205  0.000000000000000E+000
                   206 -3.417443107491274E-006
                   207 -6.303636606773868E-006
                   208  0.000000000000000E+000
                   209  0.000000000000000E+000
                   210  5.933343868383421E-006
                   211 -3.206182449844195E-006
                   212  1.266653352706490E-004
                   213 -1.611851654865855E-004
                   214  2.037317915846814E-004
                   215  1.842036915321513E-004
                   216  0.000000000000000E+000
                   217  6.195909978211527E-004
                   218 -8.143510360284031E-004
                   219 -3.528272308337287E-004
                   220  2.218029231741522E-004
                   221  0.000000000000000E+000
                   222 -3.641723154821130E-004
                   223 -5.787284354045164E-004
                   224  2.586817277946755E-006
                   225 -5.391610366551038E-005
                   226  0.000000000000000E+000
                   227 -2.821852580394272E-004
                   228 -4.337283056608584E-004
                   229 -2.453770268532319E-006
                   230 -2.485095371950305E-005
                   231  0.000000000000000E+000
                   232 -7.798772138659703E-005
                   233 -5.064082559404298E-004
                   234  4.708908457706328E-006
                   235 -1.630566417918766E-006
                   236  0.000000000000000E+000
                   237 -1.376443775378745E-004
                   238 -4.124201906681299E-004
                   239  3.293298984341336E-006
                   240  1.549320878225679E-006
                   241  0.000000000000000E+000
                   242  1.989164240643571E-005
                   243 -6.613919962632588E-005
                   244 -1.602574092346959E-007
                   245  1.855232070530146E-005
                   246  0.000000000000000E+000
 Sym= __2_A'_
 Ene=   2.00000000000000     
 Spin= Alpha
 Occup=    1.00000000000000     
                     1 -5.660146361986949E-005
                     2 -3.372086967979324E-004
                     3  2.902713802596244E-003
                     4  1.533026615144881E-004
                     5  1.299435137355286E-003
                     6 -1.357965729968226E-004
                     7  3.103553756042210E-003
                     8  0.000000000000000E+000
                     9 -2.527212695422647E-005
                    10 -9.826343844267122E-005
                    11  0.000000000000000E+000
                    12  4.821969492984215E-005
                    13 -4.505229164435144E-004
                    14  0.000000000000000E+000
                    15  3.498885406643562E-005
                    16  0.000000000000000E+000
                    17  0.000000000000000E+000
                    18 -6.211463834853183E-005
                    19  2.927365189824446E-006
                    20 -1.309258809154194E-004
                    21  0.000000000000000E+000
                    22  0.000000000000000E+000
                    23  1.893349562674691E-004
                    24  5.532758168774073E-006
                    25  0.000000000000000E+000
                    26 -7.000812261735646E-006
                    27  9.447543944728334E-005
                    28  0.000000000000000E+000
                    29  0.000000000000000E+000
                    30 -6.883662155037372E-006
                    31  1.461430510949312E-004
                    32   1.00101470281553     
                    33  9.392572698038009E-003
                    34  2.728731674875277E-003
                    35 -8.042689756652278E-003
                    36 -8.563924850559606E-005
                    37 -3.949175271486287E-003
                    38  0.000000000000000E+000
                    39  6.842615333084119E-005
                    40  6.628899864448945E-004
                    41  0.000000000000000E+000
                    42  4.233355036465006E-005
                    43  4.346388487761969E-003
                    44  0.000000000000000E+000
                    45 -5.852450287683247E-004
                    46  0.000000000000000E+000
                    47  0.000000000000000E+000
                    48 -2.071643783532852E-004
                    49 -3.564882669734934E-006
                    50  5.410025885303778E-004
                    51  0.000000000000000E+000
                    52  0.000000000000000E+000
                    53 -9.131426533774508E-004
                    54  3.592086309811848E-005
                    55  0.000000000000000E+000
                    56 -1.669019305205247E-006
                    57  8.943408443236256E-005
                    58  0.000000000000000E+000
                    59  0.000000000000000E+000
                    60  8.238830807501687E-007
                    61  4.126913842540414E-004
                    62  8.609492852290564E-003
                    63 -2.091933156141510E-003
                    64 -2.853442221180144E-004
                    65  3.061239657448217E-003
                    66  5.626398913834520E-006
                    67  8.085302053742774E-005
                    68  0.000000000000000E+000
                    69  6.902401643108278E-004
                    70  5.599101408848866E-006
                    71  0.000000000000000E+000
                    72 -2.070157823911020E-003
                    73  8.392073733120473E-005
                    74  0.000000000000000E+000
                    75  2.872468241474522E-005
                    76  0.000000000000000E+000
                    77  0.000000000000000E+000
                    78 -4.741488987612742E-006
                    79  4.988709399257513E-006
                    80 -4.026672481149260E-004
                    81  0.000000000000000E+000
                    82  0.000000000000000E+000
                    83 -6.033276028912226E-004
                    84 -3.825291973071035E-004
                    85  0.000000000000000E+000
                    86  3.440256665216051E-005
                    87 -5.790970324555580E-005
                    88  0.000000000000000E+000
                    89  0.000000000000000E+000
                    90  5.442768725392492E-005
                    91  1.401970272593492E-004
                    92  8.950419802787815E-003
                    93 -2.111326378383137E-003
                    94 -2.771375238209601E-004
                    95  3.027105804493786E-003
                    96  1.415405959420032E-005
                    97  9.117064225488366E-005
                    98  0.000000000000000E+000
                    99 -6.483279781594199E-004
                   100  3.892312289534992E-005
                   101  0.000000000000000E+000
                   102  2.072249700619095E-003
                   103  8.563105246465498E-005
                   104  0.000000000000000E+000
                   105  3.154194034368573E-005
                   106  0.000000000000000E+000
                   107  0.000000000000000E+000
                   108 -5.861129733079014E-006
                   109 -9.210879759867363E-006
                   110 -4.044193192809761E-004
                   111  0.000000000000000E+000
                   112  0.000000000000000E+000
                   113 -6.271321660990343E-004
                   114  3.766918412435916E-004
                   115  0.000000000000000E+000
                   116 -3.377791766075499E-005
                   117 -5.838359597552865E-005
                   118  0.000000000000000E+000
                   119  0.000000000000000E+000
                   120 -5.319209735768001E-005
                   121  1.388612386537950E-004
                   122 -1.943567332392461E-004
                   123 -6.975879687078284E-004
                   124  2.249238417239611E-004
                   125 -1.015962818792954E-004
                   126 -4.630906409237558E-006
                   127 -3.260496330954904E-004
                   128  0.000000000000000E+000
                   129 -5.091617008104462E-005
                   130  5.343078796245068E-004
                   131  0.000000000000000E+000
                   132  3.188581962292668E-004
                   133  7.577725608357498E-004
                   134  0.000000000000000E+000
                   135  1.882359327504042E-005
                   136  0.000000000000000E+000
                   137  0.000000000000000E+000
                   138  3.544829246028368E-006
                   139  5.293205625021721E-005
                   140  1.349588211487369E-004
                   141  0.000000000000000E+000
                   142  0.000000000000000E+000
                   143  2.459856090720584E-004
                   144 -1.895390735505523E-004
                   145  0.000000000000000E+000
                   146  6.765202203477116E-006
                   147 -3.274478325474780E-005
                   148  0.000000000000000E+000
                   149  0.000000000000000E+000
                   150 -4.644107689958072E-005
                   151  2.799496607718265E-005
                   152 -1.704252861083250E-004
                   153 -6.940774304190555E-004
                   154  2.279843700618534E-004
                   155 -1.220479414197259E-004
                   156  3.652099568273117E-006
                   157 -3.301798574496224E-004
                   158  0.000000000000000E+000
                   159  4.067945842216045E-005
                   160  5.543434237603321E-004