===========================================================
===                   runc                              ===
===           version 7.0.2 , April 2021              ===
===          requires COLUMBUS version Col_7.0.2        ===
===                                                     ===
===   written by: Thomas Mueller                        ===
===   gradient ext. by: Michal Dallos                   ===
===               University of Vienna                  ===
===   maintained by: Felix Plasser                      ===
===               Loughborough University               ===
===========================================================


coremem. (seq.): 200000 MB,  coremem. (par.): 19000 MB
Vdisk size: 0 DP
Reading job control file control.run ... 
 ****** This is an 2c-QDPT MRCISD calculation ****** 
 model space size=4:0:4
SMOLCAS=/home-4/yshen57@jhu.edu/Software/Chemistry/Columbus-7.0.2_OpenMolcas-18.09-col/OpenMolcas/build
Found serial Molcas Installation at /home-4/yshen57@jhu.edu/Software/Chemistry/Columbus-7.0.2_OpenMolcas-18.09-col/OpenMolcas/build
  done 
INFO: keywords nadcoupl and seward are supported for DCI mode only!
seward specified, using also alaska
Creating various directories ... 
 done 
SMOLCAS=/home-4/yshen57@jhu.edu/Software/Chemistry/Columbus-7.0.2_OpenMolcas-18.09-col/OpenMolcas/build
PMOLCAS=
Checking for illegal keywords and keyword combinations ... done 

 Nonadiabatic coupling term calculation type: DCI+DCSF
  States involved in calcualtion:
   DRT1,state1;  DRT1,state2
   DRT1,state1;  DRT1,state3
   DRT1,state1;  DRT1,state4
   DRT1,state2;  DRT1,state3
   DRT1,state2;  DRT1,state4
   DRT1,state3;  DRT1,state4
   DRT2,state1;  DRT2,state2
   DRT2,state1;  DRT2,state3
   DRT2,state1;  DRT2,state4
   DRT2,state2;  DRT2,state3
   DRT2,state2;  DRT2,state4
   DRT2,state3;  DRT2,state4

Additional gradients computed:
   DRT1,state1
   DRT1,state2
   DRT1,state3
   DRT1,state4
   DRT2,state1
   DRT2,state2
   DRT2,state3
   DRT2,state4

Checking for complete set of input files ... 
mcscf calculation without preceeding scf calculation 
will use 
 /scratch/users/yshen57@jhu.edu/Molcas/fast/0.8/mrci/mocoef as starting MOs 
Performing coupled non-rel. SO-CI calculation, nrroots: 4 0 4
starting cidrt.x   -m 200000 < cidrtin > temp at Fri May 13 14:33:50 EDT 2022

 -------------------- cidrt.x ------------------------
 spatial symmetry:  
 total number of configurations          0
 number of reference configurations     0
 --------------------------------------------------- 
 Preparing SO cidrtin files for 1 symmetries
cat ../cidrtin | sed -e 's/^.*input the molecular spatial symmetry/1 \/ molsym/' > cidrtin.so_A 
calling cidrt.x -m 200000 < cidrtin.so_A > cidrtls.soci_A ...
Checking the DRTs for consistency ...
calling reindex.x -i 1 -m 200000  ...
done

 ++++++++++++++++++ input file generation +++++++++++++ 
 runc start: Fri May 13 14:34:09 EDT 2022
 
  runc start: Fri May 13 14:34:09 EDT 2022
 
 starting unik.gets.x > unikls at Fri May 13 14:34:09 EDT 2022

 -------------------- unik.gets.x ------------------------
 --------------------------------------------------- 
 ++++++++++++++++++++ ao integral calculation ++++++++++++++++
starting pymolcas molcas.input.seward > molcas.output.seward  at Fri May 13 14:34:10 EDT 2022

Generating link ln -s ./molcas.OrdInt ORDINT 
 -------------------- seward ------------------------
      Basis set label: N.ANILINE.........
      Basis set label: C.ANILINE.........
      Basis set label: H.ANILINE.........
  Nuclear Coordinates in                   atomic units                                   Angstrom 
     Center  Label                x              y              z                     x              y              z
        1      N1               0.000000      -0.005398      -4.277206              0.000000      -0.002856      -2.263400
        2      C2               0.000000       0.000061      -1.776325              0.000000       0.000032      -0.939990
        3      C3               0.000000      -2.340668      -0.412673              0.000000      -1.238628      -0.218377
        4      C4               0.000000       2.337731      -0.414790              0.000000       1.237074      -0.219497
        5      C5               0.000000      -2.300552       2.160229              0.000000      -1.217399       1.143144
        6      C6               0.000000       2.302203       2.158612              0.000000       1.218274       1.142288
        7      C7               0.000000       0.001117       3.469843              0.000000       0.000591       1.836162
        8      H8               0.000000      -1.278631      -5.092288              0.000000      -0.676622      -2.694723
        9      H9               0.000000       1.670575      -5.241531              0.000000       0.884030      -2.773699
       10      H10              0.000000      -4.074986      -1.447952              0.000000      -2.156390      -0.766223
       11      H11              0.000000       4.072013      -1.450867              0.000000       2.154816      -0.767766
       12      H12              0.000000      -4.040259       3.195718              0.000000      -2.138013       1.691101
       13      H13              0.000000       4.044699       3.190039              0.000000       2.140363       1.688096
       14      H14              0.000000       0.001565       5.496300              0.000000       0.000828       2.908517
 
            Nuclear Potential Energy            274.47359031 au
 --------------------------------------------------- 
  >>>>>>>>>>>>> info: preparing drt no 1 out of 1 <<<<<<
starting mcdrt.x -m 200000 < mcdrtin > mcdrtls at Fri May 13 14:37:54 EDT 2022

 -------------------- mcdrt.x ------------------------
  Spin multiplicity: singlet 
  Spatial symmetry (#): 1
  Number of Configurations:       1275 
  --------------------------------------------------- 
 starting mcuft.x at Fri May 13 14:37:55 EDT 2022

 -------------------- mcuft.x ------------------------
 --------------------------------------------------- 
 ++++++++++++++++++++ MCSCF calculation +++++++++++++++
info: taking mocoef file from /scratch/users/yshen57@jhu.edu/Molcas/fast/0.8/mrci/mocoef
adding flag 30 to mcscfin
Writing mcdenin files for mcscf.x for 1 DRTs
adding flag 26 to mcscfin
starting mcscf.x -m 200000 at Fri May 13 14:37:55 EDT 2022

 -------------------- mcscf.x ------------------------
 Individual total energies for all states: 
    DRT #1 state # 1 wt 0.250 total energy=     -285.839727767, rel. (eV)=   0.000000
    DRT #1 state # 2 wt 0.250 total energy=     -285.655092559, rel. (eV)=   5.024182
    DRT #1 state # 3 wt 0.250 total energy=     -285.617299197, rel. (eV)=   6.052592
    DRT #1 state # 4 wt 0.250 total energy=     -285.574764740, rel. (eV)=   7.210014
  --------------------------------------------------- 
 starting mcpc.x -m 200000 < mcpcin > mcpcls at Fri May 13 14:40:19 EDT 2022

 -------------------- mcpc.x ------------------------
 --------------------------------------------------- 
 starting mcpc.x -m 200000 < mcpcin > mcpcls at Fri May 13 14:40:19 EDT 2022

 -------------------- mcpc.x ------------------------
 --------------------------------------------------- 
 starting mcpc.x -m 200000 < mcpcin > mcpcls at Fri May 13 14:40:19 EDT 2022

 -------------------- mcpc.x ------------------------
 --------------------------------------------------- 
 starting mcpc.x -m 200000 < mcpcin > mcpcls at Fri May 13 14:40:20 EDT 2022

 -------------------- mcpc.x ------------------------
 --------------------------------------------------- 
 
========= state properties for state-averaged MCSCF =========
mcscf.drt1.st01.sp
starting exptvl.x -m 200000   at Fri May 13 14:40:20 EDT 2022

 -------------------- exptvl.x ------------------------
  === dipole moment === 
                     X               Y               Z   
   orign x       0.00000000      0.00000000      0.00000000
   orign y       0.00000000      0.00000000      0.00000000
   orign z       0.00000000      0.00000000      0.00000000
   nuclear       0.00000000      0.35654657     -0.18164211
   electronic    0.00000000     -0.27667943     -0.82959713
   total         0.00000000      0.07986714     -1.01123924
   total Dipole moment =   2.57832038    Debye
 --------------------------------------------------- 
 mcscf.drt1.st02.sp
starting exptvl.x -m 200000   at Fri May 13 14:40:20 EDT 2022

 -------------------- exptvl.x ------------------------
  === dipole moment === 
                     X               Y               Z   
   orign x       0.00000000      0.00000000      0.00000000
   orign y       0.00000000      0.00000000      0.00000000
   orign z       0.00000000      0.00000000      0.00000000
   nuclear       0.00000000      0.35654657     -0.18164211
   electronic    0.00000000     -0.30235213      3.75196443
   total         0.00000000      0.05419444      3.57032232
   total Dipole moment =   9.07590859    Debye
 --------------------------------------------------- 
 mcscf.drt1.st03.sp
starting exptvl.x -m 200000   at Fri May 13 14:40:20 EDT 2022

 -------------------- exptvl.x ------------------------
  === dipole moment === 
                     X               Y               Z   
   orign x       0.00000000      0.00000000      0.00000000
   orign y       0.00000000      0.00000000      0.00000000
   orign z       0.00000000      0.00000000      0.00000000
   nuclear       0.00000000      0.35654657     -0.18164211
   electronic    0.00000000     -0.27596560     -1.22387734
   total         0.00000000      0.08058097     -1.40551945
   total Dipole moment =   3.57834410    Debye
 --------------------------------------------------- 
 mcscf.drt1.st04.sp
starting exptvl.x -m 200000   at Fri May 13 14:40:21 EDT 2022

 -------------------- exptvl.x ------------------------
  === dipole moment === 
                     X               Y               Z   
   orign x       0.00000000      0.00000000      0.00000000
   orign y       0.00000000      0.00000000      0.00000000
   orign z       0.00000000      0.00000000      0.00000000
   nuclear       0.00000000      0.35654657     -0.18164211
   electronic    0.00000000     -0.31105588      4.43613738
   total         0.00000000      0.04549069      4.25449527
   total Dipole moment =  10.81447725    Debye
 --------------------------------------------------- 
  using the MCSCF MOs ... 
starting cidrt.x  -m 200000 < cidrtin.1 > cidrtls at Fri May 13 14:40:21 EDT 2022

 -------------------- cidrt.x ------------------------
 total number of orbitals            :   246
 number of frozen core orbitals      :    18
 number of frozen virtual orbitals   :     0
 number of internal orbitals         :    14
 number of external orbitals         :   214
 spatial symmetry:   a  
 
 total number of configurations  158587185
 number of reference configurations  1275
 --------------------------------------------------- 
 starting cidrt.x  -m 200000 < cidrtin.2 > cidrtls at Fri May 13 14:40:23 EDT 2022

 -------------------- cidrt.x ------------------------
 total number of orbitals            :   246
 number of frozen core orbitals      :    18
 number of frozen virtual orbitals   :     0
 number of internal orbitals         :    14
 number of external orbitals         :   214
 spatial symmetry:   a  
 
 total number of configurations  282461366
 number of reference configurations  1666
 --------------------------------------------------- 
 starting tran.x -m 200000  at Fri May 13 14:40:27 EDT 2022

 -------------------- tran.x ------------------------
 --------------------------------------------------- 
  Starting ciudgav with DRT # 1 out of 2 

 *** starting pciudg section *** 
nproc: 48 machinefile:  
assuming machinefile syntax: one host name per line optionally repeated
 section2, MPI_STARTUP:
 /software/apps/mpi/openmpi/3.1/intel/18.0/bin/mpirun -np 48  /home-4/yshen57@jhu.edu/Software/Chemistry/Columbus-7.0.2_OpenMolcas-18.09-col/Columbus/pciudg.x -m 19000 
 -------------------- pciudg.x ------------------------
 type of calculation:          mr-sdci
 number of configurations:     158587185
 total mr-sdci energy             -286.0352345134 
 last mr-sdci energy change          -0.0000000000 
 residual                             0.0000064872 
  type of calculation:          mr-sdci
 number of configurations:     158587185
 total mr-sdci energy             -285.8800395686 
 last mr-sdci energy change           0.0000000000 
 residual                             0.0000075241 
  type of calculation:          mr-sdci
 number of configurations:     158587185
 total mr-sdci energy             -285.8557536837 
 last mr-sdci energy change          -0.0000000000 
 residual                             0.0000065793 
  type of calculation:          mr-sdci
 number of configurations:     158587185
 total mr-sdci energy             -285.8037044828 
 last mr-sdci energy change           0.0000000000 
 residual                             0.0000060735 
  --------------------------------------------------- 
 keyinfile returned docipci=0:
starting cipc.x -m 200000 < cipcin > cipcls at Sat May 14 06:48:55 EDT 2022

 -------------------- cipc.x ------------------------
 --------------------------------------------------- 
  Starting ciudgav with DRT # 2 out of 2 

 *** starting pciudg section *** 
nproc: 48 machinefile:  
assuming machinefile syntax: one host name per line optionally repeated
 section2, MPI_STARTUP:
 /software/apps/mpi/openmpi/3.1/intel/18.0/bin/mpirun -np 48  /home-4/yshen57@jhu.edu/Software/Chemistry/Columbus-7.0.2_OpenMolcas-18.09-col/Columbus/pciudg.x -m 19000 
 -------------------- pciudg.x ------------------------
 type of calculation:          mr-sdci
 number of configurations:     282461366
 total mr-sdci energy             -285.8874680776 
 last mr-sdci energy change           0.0000000000 
 residual                             0.0000065836 
  type of calculation:          mr-sdci
 number of configurations:     282461366
 total mr-sdci energy             -285.8817615883 
 last mr-sdci energy change           0.0000000000 
 residual                             0.0000047093 
  type of calculation:          mr-sdci
 number of configurations:     282461366
 total mr-sdci energy             -285.8746577372 
 last mr-sdci energy change           0.0000000000 
 residual                             0.0000080719 
  type of calculation:          mr-sdci
 number of configurations:     282461366
 total mr-sdci energy             -285.8464865521 
 last mr-sdci energy change           0.0000000000 
 residual                             0.0000094886 
  --------------------------------------------------- 
 keyinfile returned docipci=0:
starting cipc.x -m 200000 < cipcin > cipcls at Sun May 15 19:29:09 EDT 2022

 -------------------- cipc.x ------------------------
 --------------------------------------------------- 
 Reindex call
run_socinr: imult=1 irrep=1 
opening file =ciudgls.drt1.sp
opening file =ciudgls.drt1.sp
opening file =ciudgls.drt1.sp
opening file =ciudgls.drt1.sp
run_socinr: imult=3 irrep=1 
opening file =ciudgls.drt2.sp
opening file =ciudgls.drt2.sp
opening file =ciudgls.drt2.sp
opening file =ciudgls.drt2.sp
 copying /scratch/users/yshen57@jhu.edu/Molcas/fast/0.8/mrci/cidrtfl.so__A --> cidrtfl.so__A 
 copying /scratch/users/yshen57@jhu.edu/Molcas/fast/0.8/mrci/cidrtfl.so__A --> cidrtfl.so__A 
starting reindex.x -m 200000 > reindexls at Sun May 15 19:29:33 EDT 2022

 -------------------- reindex.x ------------------------
 --------------------------------------------------- 
 1      1        1           civfl_1_A             1      1    0+       1             1         civfl.so__A
1      1        2           civfl_1_A             1      1    0+       2    1005971284         civfl.so__A
1      1        3           civfl_1_A             1      1    0+       3    2011942567         civfl.so__A
1      1        4           civfl_1_A             1      1    0+       4    3017913850         civfl.so__A
3      1        1           civfl_3_A             1      3    0+       5    4023885133         civfl.so__A
3      1        1           civfl_3_A             1      3    1+       6    5029856416         civfl.so__A
3      1        1           civfl_3_A             1      3    1-       7    6035827699         civfl.so__A
3      1        2           civfl_3_A             1      3    0+       8    7041798982         civfl.so__A
3      1        2           civfl_3_A             1      3    1+       9    8047770265         civfl.so__A
3      1        2           civfl_3_A             1      3    1-      10    9053741548         civfl.so__A
3      1        3           civfl_3_A             1      3    0+      11   10059712831         civfl.so__A
3      1        3           civfl_3_A             1      3    1+      12   11065684114         civfl.so__A
3      1        3           civfl_3_A             1      3    1-      13   12071655397         civfl.so__A
3      1        4           civfl_3_A             1      3    0+      14   13077626680         civfl.so__A
3      1        4           civfl_3_A             1      3    1+      15   14083597963         civfl.so__A
3      1        4           civfl_3_A             1      3    1-      16   15089569246         civfl.so__A
 Executing ciudg.x  for gamma =A ...

 *** starting pciudg section *** 
nproc: 48 machinefile:  
assuming machinefile syntax: one host name per line optionally repeated
 section2, MPI_STARTUP:
 /software/apps/mpi/openmpi/3.1/intel/18.0/bin/mpirun -np 48  /home-4/yshen57@jhu.edu/Software/Chemistry/Columbus-7.0.2_OpenMolcas-18.09-col/Columbus/pciudg.x -m 19000 
 -------------------- pciudg.x ------------------------
 type of calculation:          mr-sdci
 number of configurations:     1005971283
 total mr-sdci energy             -286.0352345155 
 last mr-sdci energy change          37.2430000000 
 residual                            37.2430000000 
  type of calculation:          mr-sdci
 number of configurations:     1005971283
 total mr-sdci energy             -285.8874681069 
 last mr-sdci energy change          37.0960000000 
 residual                            37.0960000000 
  type of calculation:          mr-sdci
 number of configurations:     1005971283
 total mr-sdci energy             -285.8874681069 
 last mr-sdci energy change          37.0960000000 
 residual                            37.0960000000 
  type of calculation:          mr-sdci
 number of configurations:     1005971283
 total mr-sdci energy             -285.8874680976 
 last mr-sdci energy change          37.0960000000 
 residual                            37.0960000000 
  type of calculation:          mr-sdci
 number of configurations:     1005971283
 total mr-sdci energy             -285.8817615867 
 last mr-sdci energy change          37.0900000000 
 residual                            37.0900000000 
  type of calculation:          mr-sdci
 number of configurations:     1005971283
 total mr-sdci energy             -285.8817615596 
 last mr-sdci energy change          37.0900000000 
 residual                            37.0900000000 
  type of calculation:          mr-sdci
 number of configurations:     1005971283
 total mr-sdci energy             -285.8817615593 
 last mr-sdci energy change          37.0900000000 
 residual                            37.0900000000 
  type of calculation:          mr-sdci
 number of configurations:     1005971283
 total mr-sdci energy             -285.8800395493 
 last mr-sdci energy change          37.0880000000 
 residual                            37.0880000000 
  type of calculation:          mr-sdci
 number of configurations:     1005971283
 total mr-sdci energy             -285.8746577372 
 last mr-sdci energy change          37.0830000000 
 residual                            37.0830000000 
  type of calculation:          mr-sdci
 number of configurations:     1005971283
 total mr-sdci energy             -285.8746577368 
 last mr-sdci energy change          37.0830000000 
 residual                            37.0830000000 
  type of calculation:          mr-sdci
 number of configurations:     1005971283
 total mr-sdci energy             -285.8746577367 
 last mr-sdci energy change          37.0830000000 
 residual                            37.0830000000 
  type of calculation:          mr-sdci
 number of configurations:     1005971283
 total mr-sdci energy             -285.8557536835 
 last mr-sdci energy change          37.0640000000 
 residual                            37.0640000000 
  type of calculation:          mr-sdci
 number of configurations:     1005971283
 total mr-sdci energy             -285.8464865520 
 last mr-sdci energy change          37.0550000000 
 residual                            37.0550000000 
  type of calculation:          mr-sdci
 number of configurations:     1005971283
 total mr-sdci energy             -285.8464865520 
 last mr-sdci energy change          37.0550000000 
 residual                            37.0550000000 
  type of calculation:          mr-sdci
 number of configurations:     1005971283
 total mr-sdci energy             -285.8464865519 
 last mr-sdci energy change          37.0550000000 
 residual                            37.0550000000 
  type of calculation:          mr-sdci
 number of configurations:     1005971283
 total mr-sdci energy             -285.8037044823 
 last mr-sdci energy change          37.0120000000 
 residual                            37.0120000000 
  --------------------------------------------------- 
 ************* Results for Spin-Orbit CI gamma=A **************** 
Final spin-orbit CI state energies: 


-------------- HT matrix in AU ----------------  
-37.243309    
 0.000000    -37.088114    
 0.000000     0.000000    -37.063828    
 0.000000     0.000000     0.000000    -37.011779    
 0.000000     0.000005     0.000000     0.000001    -37.095543    
-0.000000     0.000011    -0.000000    -0.000000     0.000000    -37.095543    
 0.000000     0.000000    -0.000000    -0.000000    -0.000000     0.000000    -37.095543    
-0.000010    -0.000000     0.000002    -0.000000     0.000000    -0.000000     0.000012    -37.089836    
-0.000015    -0.000000    -0.000000    -0.000000     0.000000     0.000000    -0.000005    -0.000000    -37.089836    
-0.000000     0.000000    -0.000000    -0.000000    -0.000012     0.000005     0.000000     0.000000     0.000000    -37.089836    
-0.000000    -0.000002    -0.000000    -0.000002     0.000000     0.000000    -0.000000     0.000000     0.000000    -0.000000    -37.082732    
 0.000000     0.000000     0.000000    -0.000005    -0.000000     0.000000    -0.000000    -0.000000     0.000000    -0.000002    -0.000000    -37.082732    
 0.000000     0.000000     0.000000    -0.000000     0.000000     0.000000     0.000000     0.000000     0.000002     0.000000     0.000000     0.000000    -37.082732    
-0.000000    -0.000001    -0.000000     0.000001     0.000000    -0.000000     0.000000     0.000000     0.000000     0.000002     0.000000     0.000000    -0.000000    -37.054561    
-0.000000    -0.000002    -0.000000    -0.000001     0.000000     0.000000     0.000000    -0.000000     0.000000    -0.000001    -0.000000     0.000000     0.000000    -0.000000    -37.054561    
-0.000000     0.000000     0.000000    -0.000000    -0.000000    -0.000000     0.000000    -0.000002     0.000001     0.000000     0.000000    -0.000000     0.000000     0.000000    -0.000000    -37.054561    
-------------- HT matrix in eV ---------------- 
-1013.442   
    0.000   -1009.219   
    0.000       0.000   -1008.558   
    0.000       0.000       0.000   -1007.142   
    0.000       0.000       0.000       0.000   -1009.421   
   -0.000       0.000      -0.000      -0.000       0.000   -1009.421   
    0.000       0.000      -0.000      -0.000      -0.000       0.000   -1009.421   
   -0.000      -0.000       0.000      -0.000       0.000      -0.000       0.000   -1009.266   
   -0.000      -0.000      -0.000      -0.000       0.000       0.000      -0.000      -0.000   -1009.266   
   -0.000       0.000      -0.000      -0.000      -0.000       0.000       0.000       0.000       0.000   -1009.266   
   -0.000      -0.000      -0.000      -0.000       0.000       0.000      -0.000       0.000       0.000      -0.000   -1009.072   
    0.000       0.000       0.000      -0.000      -0.000       0.000      -0.000      -0.000       0.000      -0.000      -0.000   -1009.072   
    0.000       0.000       0.000      -0.000       0.000       0.000       0.000       0.000       0.000       0.000       0.000       0.000   -1009.072   
   -0.000      -0.000      -0.000       0.000       0.000      -0.000       0.000       0.000       0.000       0.000       0.000       0.000      -0.000   -1008.306   
   -0.000      -0.000      -0.000      -0.000       0.000       0.000       0.000      -0.000       0.000      -0.000      -0.000       0.000       0.000      -0.000   -1008.306   
   -0.000       0.000       0.000      -0.000      -0.000      -0.000       0.000      -0.000       0.000       0.000       0.000      -0.000       0.000       0.000      -0.000   -1008.306   
-------------- HT matrix in cm-1 ------------------- 
Eref = -37.24330899
     0.00   
     0.00    34061.41   
     0.00        0.00    39391.56   
     0.00        0.00        0.00    50815.05   
     0.00        1.14        0.00        0.32    32431.04   
     0.00        2.42        0.00       -0.02        0.00    32431.04   
     0.00        0.00       -0.01        0.00        0.00        0.00    32431.04   
    -2.17        0.00        0.46        0.00        0.00        0.00        2.57    33683.47   
    -3.28        0.00       -0.08        0.00        0.00        0.00       -1.20        0.00    33683.47   
     0.00        0.01        0.00       -0.02       -2.57        1.20        0.00        0.00        0.00    33683.47   
     0.00       -0.36        0.00       -0.51        0.00        0.02        0.00        0.00        0.00       -0.07    35242.59   
     0.00        0.08        0.00       -1.07       -0.02        0.00        0.00        0.00        0.00       -0.37        0.00    35242.59   
     0.00        0.00        0.00        0.00        0.00        0.00        0.00        0.07        0.37        0.00        0.00        0.00    35242.59   
     0.00       -0.22        0.00        0.32        0.00        0.00        0.00        0.00        0.00        0.45        0.00        0.00        0.00    41425.46   
     0.00       -0.41        0.00       -0.13        0.00        0.00        0.00        0.00        0.00       -0.23       -0.00        0.00        0.00        0.00    41425.46   
     0.00        0.00        0.00        0.00        0.00        0.00        0.00       -0.45        0.23        0.00        0.00        0.00        0.00        0.00        0.00    41425.46   


Spin-Orbit CI: perturbational estimate of Spin-Orbit CI energies and wavefunctions 
                SO   1         SO   2         SO   3         SO   4         SO   5         SO   6         SO   7         SO   8

   energy  -286.03523452  -285.88746811  -285.88746811  -285.88746810  -285.88176159  -285.88176156  -285.88176156  -285.88003955
 
   NR   1     0.99999999     0.00000000     0.00000017    -0.00000000     0.00011514    -0.00000000     0.00001876     0.00000000
   NR   2    -0.00000000    -0.00002310    -0.00000000     0.00164058    -0.00000000    -0.00001699     0.00000000     0.99999860
   NR   3    -0.00000000    -0.00000000     0.00000183    -0.00000000     0.00001966    -0.00000000     0.00007945     0.00000000
   NR   4     0.00000000    -0.00001607     0.00000000     0.00000618    -0.00000000     0.00000134    -0.00000000    -0.00000001
   NR   5    -0.00000000     0.91040567    -0.00000000    -0.41371103    -0.00000000    -0.00205212    -0.00000000     0.00069972
   NR   6     0.00000000    -0.41371052     0.00000000    -0.91040677    -0.00000000     0.00095713     0.00000000     0.00148406
   NR   7    -0.00000013     0.00000000     0.99999744    -0.00000000     0.00003040     0.00000000    -0.00226415     0.00000000
   NR   8     0.00006437    -0.00000000    -0.00205210     0.00000000    -0.41050454     0.00000000    -0.91185624    -0.00000000
   NR   9     0.00009729     0.00000000     0.00095716     0.00000000    -0.91185852    -0.00000000     0.41050342    -0.00000000
   NR  10     0.00000000     0.00226424    -0.00000000     0.00002242    -0.00000000     0.99999740     0.00000000     0.00001701
   NR  11     0.00000000     0.00000228     0.00000000     0.00000510     0.00000000     0.00004618    -0.00000000     0.00030283
   NR  12    -0.00000000     0.00000519     0.00000000    -0.00000226    -0.00000000     0.00023894     0.00000000    -0.00006792
   NR  13    -0.00000015    -0.00000000    -0.00000007     0.00000000     0.00023686     0.00000000    -0.00005597    -0.00000000
   NR  14     0.00000000    -0.00000014    -0.00000000    -0.00000001     0.00000000    -0.00005839     0.00000000     0.00002975
   NR  15     0.00000000     0.00000001    -0.00000000     0.00000010     0.00000000     0.00002999    -0.00000000     0.00005624
   NR  16     0.00000002    -0.00000000    -0.00000013    -0.00000000     0.00000338    -0.00000000    -0.00006555    -0.00000000

                SO   9         SO  10         SO  11         SO  12         SO  13         SO  14         SO  15         SO  16

   energy  -285.87465774  -285.87465774  -285.87465774  -285.85575368  -285.84648655  -285.84648655  -285.84648655  -285.80370448
 
   NR   1    -0.00000000     0.00000012     0.00000000     0.00000000     0.00000000    -0.00000000    -0.00000002    -0.00000000
   NR   2     0.00006353    -0.00000006     0.00030379     0.00000000     0.00000658    -0.00006328    -0.00000000     0.00000000
   NR   3     0.00000000    -0.00000013    -0.00000000    -1.00000000     0.00000000    -0.00000000     0.00000041    -0.00000000
   NR   4    -0.00007599    -0.00000000    -0.00000153    -0.00000000     0.00003733    -0.00000009     0.00000000     1.00000000
   NR   5     0.00000469     0.00000000    -0.00000205    -0.00000000     0.00000004     0.00000005    -0.00000000     0.00001719
   NR   6    -0.00000207     0.00000000    -0.00000465     0.00000000     0.00000004    -0.00000004    -0.00000000    -0.00000103
   NR   7     0.00000000    -0.00000006    -0.00000000     0.00000165    -0.00000000     0.00000000    -0.00000002    -0.00000000
   NR   8    -0.00000000     0.00004620     0.00000001    -0.00008052    -0.00000000     0.00000000    -0.00005839    -0.00000000
   NR   9    -0.00000001     0.00023896     0.00000005     0.00001469     0.00000000     0.00000000     0.00002999    -0.00000000
   NR  10     0.00023664     0.00000002    -0.00005687     0.00000000    -0.00006537    -0.00000600     0.00000000    -0.00000129
   NR  11    -0.41398410     0.00016984    -0.91028404     0.00000000    -0.00000026    -0.00000063     0.00000000    -0.00003285
   NR  12    -0.91028407    -0.00010802     0.41398409    -0.00000000    -0.00000063     0.00000025    -0.00000000    -0.00006854
   NR  13    -0.00002802     0.99999995     0.00019932    -0.00000013     0.00000000     0.00000000     0.00000000    -0.00000000
   NR  14     0.00000061     0.00000000    -0.00000027    -0.00000000    -0.92752133     0.37377023     0.00000001     0.00003466
   NR  15    -0.00000027     0.00000000    -0.00000060    -0.00000000     0.37377023     0.92752133     0.00000001    -0.00001387
   NR  16     0.00000000    -0.00000001    -0.00000000     0.00000040     0.00000000    -0.00000001     1.00000000    -0.00000000
rescaling new expansion vector ... old norm=   4530.0911202110

 model space basis from reindexls .. 
 --SO-CI-------         -----NR-CI-------             ---model space---- 
 Gamma  root             S   irrep   root                S   ms* 
A          1             1   A         1                 1   0+
A          2             1   A         2                 1   0+
A          3             1   A         3                 1   0+
A          4             1   A         4                 1   0+
A          5             3   A         1                 3   0+
A          6             3   A         1                 3   1+
A          7             3   A         1                 3   1-
A          8             3   A         2                 3   0+
A          9             3   A         2                 3   1+
A         10             3   A         2                 3   1-
A         11             3   A         3                 3   0+
A         12             3   A         3                 3   1+
A         13             3   A         3                 3   1-
A         14             3   A         4                 3   0+
A         15             3   A         4                 3   1+
A         16             3   A         4                 3   1-

************************** SUMMARY *********************************

--------------  SO matrix for irrep A in eV ---------------- 
|1,0+;1,A,1> -1013.442   
|1,0+;1,A,2>     0.000   -1009.219   
|1,0+;1,A,3>     0.000       0.000   -1008.558   
|1,0+;1,A,4>     0.000       0.000       0.000   -1007.142   
|3,0+;3,A,1>     0.000       0.000       0.000       0.000   -1009.421   
|3,1+;3,A,1>    -0.000       0.000      -0.000      -0.000       0.000   -1009.421   
|3,1-;3,A,1>     0.000       0.000      -0.000      -0.000      -0.000       0.000   -1009.421   
|3,0+;3,A,2>    -0.000      -0.000       0.000      -0.000       0.000      -0.000       0.000   -1009.266   
|3,1+;3,A,2>    -0.000      -0.000      -0.000      -0.000       0.000       0.000      -0.000      -0.000   -1009.266   
|3,1-;3,A,2>    -0.000       0.000      -0.000      -0.000      -0.000       0.000       0.000       0.000       0.000   -1009.266   
|3,0+;3,A,3>    -0.000      -0.000      -0.000      -0.000       0.000       0.000      -0.000       0.000       0.000      -0.000   -1009.072   
|3,1+;3,A,3>     0.000       0.000       0.000      -0.000      -0.000       0.000      -0.000      -0.000       0.000      -0.000      -0.000   -1009.072   
|3,1-;3,A,3>     0.000       0.000       0.000      -0.000       0.000       0.000       0.000       0.000       0.000       0.000       0.000       0.000   -1009.072   
|3,0+;3,A,4>    -0.000      -0.000      -0.000       0.000       0.000      -0.000       0.000       0.000       0.000       0.000       0.000       0.000      -0.000   -1008.306   
|3,1+;3,A,4>    -0.000      -0.000      -0.000      -0.000       0.000       0.000       0.000      -0.000       0.000      -0.000      -0.000       0.000       0.000      -0.000   -1008.306   
|3,1-;3,A,4>    -0.000       0.000       0.000      -0.000      -0.000      -0.000       0.000      -0.000       0.000       0.000       0.000      -0.000       0.000       0.000      -0.000   -1008.306   

--------------  SO matrix for irrep A in cm-1 ------------------- 
Eref = -37.24330899
|1,0+;1,A,1>      0.00   
|1,0+;1,A,2>      0.00    34061.41   
|1,0+;1,A,3>      0.00        0.00    39391.56   
|1,0+;1,A,4>      0.00        0.00        0.00    50815.05   
|3,0+;3,A,1>      0.00        1.14        0.00        0.32    32431.04   
|3,1+;3,A,1>      0.00        2.42        0.00       -0.02        0.00    32431.04   
|3,1-;3,A,1>      0.00        0.00       -0.01        0.00        0.00        0.00    32431.04   
|3,0+;3,A,2>     -2.17        0.00        0.46        0.00        0.00        0.00        2.57    33683.47   
|3,1+;3,A,2>     -3.28        0.00       -0.08        0.00        0.00        0.00       -1.20        0.00    33683.47   
|3,1-;3,A,2>      0.00        0.01        0.00       -0.02       -2.57        1.20        0.00        0.00        0.00    33683.47   
|3,0+;3,A,3>      0.00       -0.36        0.00       -0.51        0.00        0.02        0.00        0.00        0.00       -0.07    35242.59   
|3,1+;3,A,3>      0.00        0.08        0.00       -1.07       -0.02        0.00        0.00        0.00        0.00       -0.37        0.00    35242.59   
|3,1-;3,A,3>      0.00        0.00        0.00        0.00        0.00        0.00        0.00        0.07        0.37        0.00        0.00        0.00    35242.59   
|3,0+;3,A,4>      0.00       -0.22        0.00        0.32        0.00        0.00        0.00        0.00        0.00        0.45        0.00        0.00        0.00    41425.46   
|3,1+;3,A,4>      0.00       -0.41        0.00       -0.13        0.00        0.00        0.00        0.00        0.00       -0.23       -0.00        0.00        0.00        0.00    41425.46   
|3,1-;3,A,4>      0.00        0.00        0.00        0.00        0.00        0.00        0.00       -0.45        0.23        0.00        0.00        0.00        0.00        0.00        0.00    41425.46   


 ** perturbational estimate of Spin-Orbit CI energies and wavefunctions in model space basis** 

                      A  1         A  2         A  3         A  4         A  5         A  6         A  7         A  8

            energy  -286.03523452  -285.88746811  -285.88746811  -285.88746810  -285.88176159  -285.88176156  -285.88176156  -285.88003955
          
   |1,0+;1,A,1>     0.99999999     0.00000000     0.00000017    -0.00000000     0.00011514    -0.00000000     0.00001876     0.00000000
   |1,0+;1,A,2>    -0.00000000    -0.00002310    -0.00000000     0.00164058    -0.00000000    -0.00001699     0.00000000     0.99999860
   |1,0+;1,A,3>    -0.00000000    -0.00000000     0.00000183    -0.00000000     0.00001966    -0.00000000     0.00007945     0.00000000
   |1,0+;1,A,4>     0.00000000    -0.00001607     0.00000000     0.00000618    -0.00000000     0.00000134    -0.00000000    -0.00000001
   |3,0+;3,A,1>    -0.00000000     0.91040567    -0.00000000    -0.41371103    -0.00000000    -0.00205212    -0.00000000     0.00069972
   |3,1+;3,A,1>     0.00000000    -0.41371052     0.00000000    -0.91040677    -0.00000000     0.00095713     0.00000000     0.00148406
   |3,1-;3,A,1>    -0.00000013     0.00000000     0.99999744    -0.00000000     0.00003040     0.00000000    -0.00226415     0.00000000
   |3,0+;3,A,2>     0.00006437    -0.00000000    -0.00205210     0.00000000    -0.41050454     0.00000000    -0.91185624    -0.00000000
   |3,1+;3,A,2>     0.00009729     0.00000000     0.00095716     0.00000000    -0.91185852    -0.00000000     0.41050342    -0.00000000
   |3,1-;3,A,2>     0.00000000     0.00226424    -0.00000000     0.00002242    -0.00000000     0.99999740     0.00000000     0.00001701
   |3,0+;3,A,3>     0.00000000     0.00000228     0.00000000     0.00000510     0.00000000     0.00004618    -0.00000000     0.00030283
   |3,1+;3,A,3>    -0.00000000     0.00000519     0.00000000    -0.00000226    -0.00000000     0.00023894     0.00000000    -0.00006792
   |3,1-;3,A,3>    -0.00000015    -0.00000000    -0.00000007     0.00000000     0.00023686     0.00000000    -0.00005597    -0.00000000
   |3,0+;3,A,4>     0.00000000    -0.00000014    -0.00000000    -0.00000001     0.00000000    -0.00005839     0.00000000     0.00002975
   |3,1+;3,A,4>     0.00000000     0.00000001    -0.00000000     0.00000010     0.00000000     0.00002999    -0.00000000     0.00005624
   |3,1-;3,A,4>     0.00000002    -0.00000000    -0.00000013    -0.00000000     0.00000338    -0.00000000    -0.00006555    -0.00000000

                      A  9         A 10         A 11         A 12         A 13         A 14         A 15         A 16

            energy  -285.87465774  -285.87465774  -285.87465774  -285.85575368  -285.84648655  -285.84648655  -285.84648655  -285.80370448
          
   |1,0+;1,A,1>    -0.00000000     0.00000012     0.00000000     0.00000000     0.00000000    -0.00000000    -0.00000002    -0.00000000
   |1,0+;1,A,2>     0.00006353    -0.00000006     0.00030379     0.00000000     0.00000658    -0.00006328    -0.00000000     0.00000000
   |1,0+;1,A,3>     0.00000000    -0.00000013    -0.00000000    -1.00000000     0.00000000    -0.00000000     0.00000041    -0.00000000
   |1,0+;1,A,4>    -0.00007599    -0.00000000    -0.00000153    -0.00000000     0.00003733    -0.00000009     0.00000000     1.00000000
   |3,0+;3,A,1>     0.00000469     0.00000000    -0.00000205    -0.00000000     0.00000004     0.00000005    -0.00000000     0.00001719
   |3,1+;3,A,1>    -0.00000207     0.00000000    -0.00000465     0.00000000     0.00000004    -0.00000004    -0.00000000    -0.00000103
   |3,1-;3,A,1>     0.00000000    -0.00000006    -0.00000000     0.00000165    -0.00000000     0.00000000    -0.00000002    -0.00000000
   |3,0+;3,A,2>    -0.00000000     0.00004620     0.00000001    -0.00008052    -0.00000000     0.00000000    -0.00005839    -0.00000000
   |3,1+;3,A,2>    -0.00000001     0.00023896     0.00000005     0.00001469     0.00000000     0.00000000     0.00002999    -0.00000000
   |3,1-;3,A,2>     0.00023664     0.00000002    -0.00005687     0.00000000    -0.00006537    -0.00000600     0.00000000    -0.00000129
   |3,0+;3,A,3>    -0.41398410     0.00016984    -0.91028404     0.00000000    -0.00000026    -0.00000063     0.00000000    -0.00003285
   |3,1+;3,A,3>    -0.91028407    -0.00010802     0.41398409    -0.00000000    -0.00000063     0.00000025    -0.00000000    -0.00006854
   |3,1-;3,A,3>    -0.00002802     0.99999995     0.00019932    -0.00000013     0.00000000     0.00000000     0.00000000    -0.00000000
   |3,0+;3,A,4>     0.00000061     0.00000000    -0.00000027    -0.00000000    -0.92752133     0.37377023     0.00000001     0.00003466
   |3,1+;3,A,4>    -0.00000027     0.00000000    -0.00000060    -0.00000000     0.37377023     0.92752133     0.00000001    -0.00001387
   |3,1-;3,A,4>     0.00000000    -0.00000001    -0.00000000     0.00000040     0.00000000    -0.00000001     1.00000000    -0.00000000
rescaling new expansion vector ... old norm=   4530.0911202110

Sorted Energies:
1  -286.03523452 
2  -285.88746811 
3  -285.88746811 
4  -285.88746810 
5  -285.88176159 
6  -285.88176156 
7  -285.88176156 
8  -285.88003955 
9  -285.87465774 
10  -285.87465774 
11  -285.87465774 
12  -285.85575368 
13  -285.84648655 
14  -285.84648655 
15  -285.84648655 
16  -285.80370448 
Not computing transition moment with identical bra and ket.
 Calculating transition moment for (1,1) => (1,2)
 starting transci.x -m 200000 at Sun May 15 21:25:38 EDT 2022

 -------------------- transci.x ------------------------

                          State No. 1            State No. 2

   Space symmetry:           a                      a   
   No. of CSFs:          ********               ********
   State energies:      -286.03523451          -285.88003957  a.u.

   Transition energy:     0.15519494  a.u.
   Transition energy:     4.22        eV

       Transition moment components:

                 x            y            z

electron         -0.036337     0.000000     0.000000  e*bohr
frozen core       0.000000     0.000000     0.000000  e*bohr
total (elec)     -0.036337     0.000000     0.000000  e*bohr


   Tr.dipole length:     0.036337    e*bohr
   Oscillator strength :  0.000137
   Einstein A coef.:     0.1057E+06  1/sec
   Einstein B coef.:     0.5358E+06  sec/g

                 x            y            z

<L> electron    -0.000000    -0.219097    -0.035003  e*bohr


   <L> value length:     0.221875    e*bohr
 --------------------------------------------------- 
  Calculating transition moment for (1,1) => (1,3)
 starting transci.x -m 200000 at Sun May 15 21:28:02 EDT 2022

 -------------------- transci.x ------------------------

                          State No. 1            State No. 2

   Space symmetry:           a                      a   
   No. of CSFs:          ********               ********
   State energies:      -286.03523451          -285.85575368  a.u.

   Transition energy:     0.17948083  a.u.
   Transition energy:     4.88        eV

       Transition moment components:

                 x            y            z

electron          0.000000     0.646349     0.004980  e*bohr
frozen core       0.000000     0.000000     0.000000  e*bohr
total (elec)      0.000000     0.646349     0.004980  e*bohr


   Tr.dipole length:     0.646368    e*bohr
   Oscillator strength :  0.049990
   Einstein A coef.:     0.5174E+08  1/sec
   Einstein B coef.:     0.1695E+09  sec/g

                 x            y            z

<L> electron    -0.747128     0.000000    -0.000000  e*bohr


   <L> value length:     0.747128    e*bohr
 --------------------------------------------------- 
  Calculating transition moment for (1,1) => (1,4)
 starting transci.x -m 200000 at Sun May 15 21:30:21 EDT 2022

 -------------------- transci.x ------------------------

                          State No. 1            State No. 2

   Space symmetry:           a                      a   
   No. of CSFs:          ********               ********
   State energies:      -286.03523451          -285.80370448  a.u.

   Transition energy:     0.23153003  a.u.
   Transition energy:     6.30        eV

       Transition moment components:

                 x            y            z

electron         -0.001340    -0.000000     0.000000  e*bohr
frozen core       0.000000     0.000000     0.000000  e*bohr
total (elec)     -0.001340    -0.000000     0.000000  e*bohr


   Tr.dipole length:     0.001340    e*bohr
   Oscillator strength :  0.000000
   Einstein A coef.:     0.4774E+03  1/sec
   Einstein B coef.:     0.7288E+03  sec/g

                 x            y            z

<L> electron    -0.000000    -0.001569     0.463092  e*bohr


   <L> value length:     0.463094    e*bohr
 --------------------------------------------------- 
 Not computing transition moment with identical bra and ket.
 Calculating transition moment for (1,2) => (1,3)
 starting transci.x -m 200000 at Sun May 15 21:32:42 EDT 2022

 -------------------- transci.x ------------------------

                          State No. 1            State No. 2

   Space symmetry:           a                      a   
   No. of CSFs:          ********               ********
   State energies:      -285.88003957          -285.85575368  a.u.

   Transition energy:     0.02428588  a.u.
   Transition energy:     0.66        eV

       Transition moment components:

                 x            y            z

electron         -0.000868    -0.000000     0.000000  e*bohr
frozen core       0.000000     0.000000     0.000000  e*bohr
total (elec)     -0.000868    -0.000000     0.000000  e*bohr


   Tr.dipole length:     0.000868    e*bohr
   Oscillator strength :  0.000000
   Einstein A coef.:     0.2311E+00  1/sec
   Einstein B coef.:     0.3057E+03  sec/g

                 x            y            z

<L> electron     0.000000    -0.003837    -0.137330  e*bohr


   <L> value length:     0.137384    e*bohr
 --------------------------------------------------- 
  Calculating transition moment for (1,2) => (1,4)
 starting transci.x -m 200000 at Sun May 15 21:34:59 EDT 2022

 -------------------- transci.x ------------------------

                          State No. 1            State No. 2

   Space symmetry:           a                      a   
   No. of CSFs:          ********               ********
   State energies:      -285.88003957          -285.80370448  a.u.

   Transition energy:     0.07633509  a.u.
   Transition energy:     2.08        eV

       Transition moment components:

                 x            y            z

electron          0.000000    -0.187940     0.003125  e*bohr
frozen core       0.000000     0.000000     0.000000  e*bohr
total (elec)      0.000000    -0.187940     0.003125  e*bohr


   Tr.dipole length:     0.187966    e*bohr
   Oscillator strength :  0.001798
   Einstein A coef.:     0.3366E+06  1/sec
   Einstein B coef.:     0.1434E+08  sec/g

                 x            y            z

<L> electron     0.625731    -0.000000    -0.000000  e*bohr


   <L> value length:     0.625731    e*bohr
 --------------------------------------------------- 
 Not computing transition moment with identical bra and ket.
 Calculating transition moment for (1,3) => (1,4)
 starting transci.x -m 200000 at Sun May 15 21:37:15 EDT 2022

 -------------------- transci.x ------------------------

                          State No. 1            State No. 2

   Space symmetry:           a                      a   
   No. of CSFs:          ********               ********
   State energies:      -285.85575368          -285.80370448  a.u.

   Transition energy:     0.05204920  a.u.
   Transition energy:     1.42        eV

       Transition moment components:

                 x            y            z

electron         -0.032140     0.000000    -0.000000  e*bohr
frozen core       0.000000     0.000000     0.000000  e*bohr
total (elec)     -0.032140     0.000000    -0.000000  e*bohr


   Tr.dipole length:     0.032140    e*bohr
   Oscillator strength :  0.000036
   Einstein A coef.:     0.3120E+04  1/sec
   Einstein B coef.:     0.4192E+06  sec/g

                 x            y            z

<L> electron     0.000000    -0.129053    -0.012935  e*bohr


   <L> value length:     0.129700    e*bohr
 --------------------------------------------------- 
 Not computing transition moment with identical bra and ket.
Not computing transition moment with identical bra and ket.
 Calculating transition moment for (2,1) => (2,2)
 starting transci.x -m 200000 at Sun May 15 21:39:32 EDT 2022

 -------------------- transci.x ------------------------

                          State No. 1            State No. 2

   Space symmetry:           a                      a   
   No. of CSFs:          ********               ********
   State energies:      -285.88746808          -285.88176159  a.u.

   Transition energy:     0.00570649  a.u.
   Transition energy:     0.16        eV

       Transition moment components:

                 x            y            z

electron          0.013800     0.000000    -0.000000  e*bohr
frozen core       0.000000     0.000000     0.000000  e*bohr
total (elec)      0.013800     0.000000    -0.000000  e*bohr


   Tr.dipole length:     0.013800    e*bohr
   Oscillator strength :  0.000001
   Einstein A coef.:     0.7580E+00  1/sec
   Einstein B coef.:     0.7729E+05  sec/g

                 x            y            z

<L> electron     0.000000    -0.166937    -0.018265  e*bohr


   <L> value length:     0.167933    e*bohr
 --------------------------------------------------- 
  Calculating transition moment for (2,1) => (2,3)
 starting transci.x -m 200000 at Sun May 15 21:43:53 EDT 2022

 -------------------- transci.x ------------------------

                          State No. 1            State No. 2

   Space symmetry:           a                      a   
   No. of CSFs:          ********               ********
   State energies:      -285.88746808          -285.87465774  a.u.

   Transition energy:     0.01281034  a.u.
   Transition energy:     0.35        eV

       Transition moment components:

                 x            y            z

electron         -0.000000     0.297205     0.011285  e*bohr
frozen core       0.000000     0.000000     0.000000  e*bohr
total (elec)     -0.000000     0.297205     0.011285  e*bohr


   Tr.dipole length:     0.297419    e*bohr
   Oscillator strength :  0.000755
   Einstein A coef.:     0.3983E+04  1/sec
   Einstein B coef.:     0.3590E+08  sec/g

                 x            y            z

<L> electron     1.287996     0.000000     0.000000  e*bohr


   <L> value length:     1.287996    e*bohr
 --------------------------------------------------- 
  Calculating transition moment for (2,1) => (2,4)
 starting transci.x -m 200000 at Sun May 15 21:48:09 EDT 2022

 -------------------- transci.x ------------------------

                          State No. 1            State No. 2

   Space symmetry:           a                      a   
   No. of CSFs:          ********               ********
   State energies:      -285.88746808          -285.84648655  a.u.

   Transition energy:     0.04098153  a.u.
   Transition energy:     1.12        eV

       Transition moment components:

                 x            y            z

electron         -0.000000     0.004974    -0.180468  e*bohr
frozen core       0.000000     0.000000     0.000000  e*bohr
total (elec)     -0.000000     0.004974    -0.180468  e*bohr


   Tr.dipole length:     0.180536    e*bohr
   Oscillator strength :  0.000890
   Einstein A coef.:     0.4805E+05  1/sec
   Einstein B coef.:     0.1323E+08  sec/g

                 x            y            z

<L> electron    -0.008119    -0.000000     0.000000  e*bohr


   <L> value length:     0.008119    e*bohr
 --------------------------------------------------- 
 Not computing transition moment with identical bra and ket.
 Calculating transition moment for (2,2) => (2,3)
 starting transci.x -m 200000 at Sun May 15 21:52:18 EDT 2022

 -------------------- transci.x ------------------------

                          State No. 1            State No. 2

   Space symmetry:           a                      a   
   No. of CSFs:          ********               ********
   State energies:      -285.88176159          -285.87465774  a.u.

   Transition energy:     0.00710385  a.u.
   Transition energy:     0.19        eV

       Transition moment components:

                 x            y            z

electron         -0.002023    -0.000000     0.000000  e*bohr
frozen core       0.000000     0.000000     0.000000  e*bohr
total (elec)     -0.002023    -0.000000     0.000000  e*bohr


   Tr.dipole length:     0.002023    e*bohr
   Oscillator strength :  0.000000
   Einstein A coef.:     0.3144E-01  1/sec
   Einstein B coef.:     0.1662E+04  sec/g

                 x            y            z

<L> electron    -0.000000    -0.005475    -0.104775  e*bohr


   <L> value length:     0.104918    e*bohr
 --------------------------------------------------- 
  Calculating transition moment for (2,2) => (2,4)
 starting transci.x -m 200000 at Sun May 15 21:56:27 EDT 2022

 -------------------- transci.x ------------------------

                          State No. 1            State No. 2

   Space symmetry:           a                      a   
   No. of CSFs:          ********               ********
   State energies:      -285.88176159          -285.84648655  a.u.

   Transition energy:     0.03527504  a.u.
   Transition energy:     0.96        eV

       Transition moment components:

                 x            y            z

electron         -0.024732     0.000000    -0.000000  e*bohr
frozen core       0.000000     0.000000     0.000000  e*bohr
total (elec)     -0.024732     0.000000    -0.000000  e*bohr


   Tr.dipole length:     0.024732    e*bohr
   Oscillator strength :  0.000014
   Einstein A coef.:     0.5751E+03  1/sec
   Einstein B coef.:     0.2482E+06  sec/g

                 x            y            z

<L> electron    -0.000000    -0.027297    -0.004192  e*bohr


   <L> value length:     0.027617    e*bohr
 --------------------------------------------------- 
 Not computing transition moment with identical bra and ket.
 Calculating transition moment for (2,3) => (2,4)
 starting transci.x -m 200000 at Sun May 15 22:00:38 EDT 2022

 -------------------- transci.x ------------------------

                          State No. 1            State No. 2

   Space symmetry:           a                      a   
   No. of CSFs:          ********               ********
   State energies:      -285.87465774          -285.84648655  a.u.

   Transition energy:     0.02817119  a.u.
   Transition energy:     0.77        eV

       Transition moment components:

                 x            y            z

electron         -0.000000     0.178030     0.003090  e*bohr
frozen core       0.000000     0.000000     0.000000  e*bohr
total (elec)     -0.000000     0.178030     0.003090  e*bohr


   Tr.dipole length:     0.178057    e*bohr
   Oscillator strength :  0.000595
   Einstein A coef.:     0.1518E+05  1/sec
   Einstein B coef.:     0.1287E+08  sec/g

                 x            y            z

<L> electron    -0.016237     0.000000     0.000000  e*bohr


   <L> value length:     0.016237    e*bohr
 --------------------------------------------------- 
 Not computing transition moment with identical bra and ket.
 --- ci properties for state 1 of  DRT 1 ----
starting exptvl.x -m 200000  at Sun May 15 22:04:48 EDT 2022

 -------------------- exptvl.x ------------------------
  === dipole moment === 
                     X               Y               Z   
   orign x       0.00000000      0.00000000      0.00000000
   orign y       0.00000000      0.00000000      0.00000000
   orign z       0.00000000      0.00000000      0.00000000
   nuclear       0.00000000      0.35654657     -0.18164211
   electronic    0.00000000     -0.30475438     -0.70597436
   total         0.00000000      0.05179219     -0.88761647
   total Dipole moment =   2.25993567    Debye
 !timer: exptvl required                 cpu_time=     0.193 walltime=     0.878
 --------------------------------------------------- 
  --- ci properties for state 2 of  DRT 1 ----
starting exptvl.x -m 200000  at Sun May 15 22:04:50 EDT 2022

 -------------------- exptvl.x ------------------------
  === dipole moment === 
                     X               Y               Z   
   orign x       0.00000000      0.00000000      0.00000000
   orign y       0.00000000      0.00000000      0.00000000
   orign z       0.00000000      0.00000000      0.00000000
   nuclear       0.00000000      0.35654657     -0.18164211
   electronic    0.00000000     -0.33023046      3.45970322
   total         0.00000000      0.02631611      3.27806111
   total Dipole moment =   8.33227704    Debye
 --------------------------------------------------- 
  --- ci properties for state 3 of  DRT 1 ----
starting exptvl.x -m 200000  at Sun May 15 22:04:50 EDT 2022

 -------------------- exptvl.x ------------------------
  === dipole moment === 
                     X               Y               Z   
   orign x       0.00000000      0.00000000      0.00000000
   orign y       0.00000000      0.00000000      0.00000000
   orign z       0.00000000      0.00000000      0.00000000
   nuclear       0.00000000      0.35654657     -0.18164211
   electronic    0.00000000     -0.29353045     -1.01440330
   total         0.00000000      0.06301612     -1.19604541
   total Dipole moment =   3.04426377    Debye
 --------------------------------------------------- 
  --- ci properties for state 4 of  DRT 1 ----
starting exptvl.x -m 200000  at Sun May 15 22:04:50 EDT 2022

 -------------------- exptvl.x ------------------------
  === dipole moment === 
                     X               Y               Z   
   orign x       0.00000000      0.00000000      0.00000000
   orign y       0.00000000      0.00000000      0.00000000
   orign z       0.00000000      0.00000000      0.00000000
   nuclear       0.00000000      0.35654657     -0.18164211
   electronic    0.00000000     -0.32274036      4.16017386
   total         0.00000000      0.03380621      3.97853175
   total Dipole moment =  10.11279415    Debye
 --------------------------------------------------- 
  --- ci properties for state 1 of  DRT 2 ----
starting exptvl.x -m 200000  at Sun May 15 22:04:51 EDT 2022

 -------------------- exptvl.x ------------------------
  === dipole moment === 
                     X               Y               Z   
   orign x       0.00000000      0.00000000      0.00000000
   orign y       0.00000000      0.00000000      0.00000000
   orign z       0.00000000      0.00000000      0.00000000
   nuclear       0.00000000      0.35654657     -0.18164211
   electronic    0.00000000     -0.31952395     -0.74585998
   total         0.00000000      0.03702262     -0.92750209
   total Dipole moment =   2.35935488    Debye
 --------------------------------------------------- 
  --- ci properties for state 2 of  DRT 2 ----
starting exptvl.x -m 200000  at Sun May 15 22:04:51 EDT 2022

 -------------------- exptvl.x ------------------------
  === dipole moment === 
                     X               Y               Z   
   orign x       0.00000000      0.00000000      0.00000000
   orign y       0.00000000      0.00000000      0.00000000
   orign z       0.00000000      0.00000000      0.00000000
   nuclear       0.00000000      0.35654657     -0.18164211
   electronic    0.00000000     -0.34580697      3.42851575
   total         0.00000000      0.01073960      3.24687364
   total Dipole moment =   8.25278298    Debye
 --------------------------------------------------- 
  --- ci properties for state 3 of  DRT 2 ----
starting exptvl.x -m 200000  at Sun May 15 22:04:51 EDT 2022

 -------------------- exptvl.x ------------------------
  === dipole moment === 
                     X               Y               Z   
   orign x       0.00000000      0.00000000      0.00000000
   orign y       0.00000000      0.00000000      0.00000000
   orign z       0.00000000      0.00000000      0.00000000
   nuclear       0.00000000      0.35654657     -0.18164211
   electronic    0.00000000     -0.27759423     -1.29757371
   total         0.00000000      0.07895234     -1.47921582
   total Dipole moment =   3.76514703    Debye
 --------------------------------------------------- 
  --- ci properties for state 4 of  DRT 2 ----
starting exptvl.x -m 200000  at Sun May 15 22:04:52 EDT 2022

 -------------------- exptvl.x ------------------------
  === dipole moment === 
                     X               Y               Z   
   orign x       0.00000000      0.00000000      0.00000000
   orign y       0.00000000      0.00000000      0.00000000
   orign z       0.00000000      0.00000000      0.00000000
   nuclear       0.00000000      0.35654657     -0.18164211
   electronic    0.00000000     -0.30235576     -0.87873936
   total         0.00000000      0.05419081     -1.06038147
   total Dipole moment =   2.69874084    Debye
 --------------------------------------------------- 
 starting mo_convert.x at Sun May 15 22:04:53 EDT 2022

 -------------------- mo_convert.x ------------------------
 --------------------------------------------------- 
 starting pymolcas molcas.input.molden > molcas.output.molden at Sun May 15 22:04:53 EDT 2022

Generating link ln -s ./molcas.OrdInt ORDINT 
 -------------------- molden ------------------------
 --------------------------------------------------- 
 starting mo_convert.x at Sun May 15 22:05:19 EDT 2022

 -------------------- mo_convert.x ------------------------
 --------------------------------------------------- 
 starting pymolcas molcas.input.molden > molcas.output.molden at Sun May 15 22:05:19 EDT 2022

Generating link ln -s ./molcas.OrdInt ORDINT 
 -------------------- molden ------------------------
 --------------------------------------------------- 
 starting mo_convert.x at Sun May 15 22:05:35 EDT 2022

 -------------------- mo_convert.x ------------------------
 --------------------------------------------------- 
 starting pymolcas molcas.input.molden > molcas.output.molden at Sun May 15 22:05:36 EDT 2022

Generating link ln -s ./molcas.OrdInt ORDINT 
 -------------------- molden ------------------------
 --------------------------------------------------- 
 starting mo_convert.x at Sun May 15 22:05:51 EDT 2022

 -------------------- mo_convert.x ------------------------
 --------------------------------------------------- 
 starting pymolcas molcas.input.molden > molcas.output.molden at Sun May 15 22:05:51 EDT 2022

Generating link ln -s ./molcas.OrdInt ORDINT 
 -------------------- molden ------------------------
 --------------------------------------------------- 
 starting mo_convert.x at Sun May 15 22:06:05 EDT 2022

 -------------------- mo_convert.x ------------------------
 --------------------------------------------------- 
 starting pymolcas molcas.input.molden > molcas.output.molden at Sun May 15 22:06:06 EDT 2022

Generating link ln -s ./molcas.OrdInt ORDINT 
 -------------------- molden ------------------------
 --------------------------------------------------- 
 starting mo_convert.x at Sun May 15 22:06:21 EDT 2022

 -------------------- mo_convert.x ------------------------
 --------------------------------------------------- 
 starting pymolcas molcas.input.molden > molcas.output.molden at Sun May 15 22:06:21 EDT 2022

Generating link ln -s ./molcas.OrdInt ORDINT 
 -------------------- molden ------------------------
 --------------------------------------------------- 
 starting mo_convert.x at Sun May 15 22:06:35 EDT 2022

 -------------------- mo_convert.x ------------------------
 --------------------------------------------------- 
 starting pymolcas molcas.input.molden > molcas.output.molden at Sun May 15 22:06:36 EDT 2022

Generating link ln -s ./molcas.OrdInt ORDINT 
 -------------------- molden ------------------------
 --------------------------------------------------- 
 starting mo_convert.x at Sun May 15 22:06:50 EDT 2022

 -------------------- mo_convert.x ------------------------
 --------------------------------------------------- 
 starting pymolcas molcas.input.molden > molcas.output.molden at Sun May 15 22:06:51 EDT 2022

Generating link ln -s ./molcas.OrdInt ORDINT 
 -------------------- molden ------------------------
 --------------------------------------------------- 
 starting mo_convert.x at Sun May 15 22:07:05 EDT 2022

 -------------------- mo_convert.x ------------------------
 --------------------------------------------------- 
 starting pymolcas molcas.input.molden > molcas.output.molden at Sun May 15 22:07:05 EDT 2022

Generating link ln -s ./molcas.OrdInt ORDINT 
 -------------------- molden ------------------------
 --------------------------------------------------- 
 starting mo_convert.x at Sun May 15 22:07:20 EDT 2022

 -------------------- mo_convert.x ------------------------
 --------------------------------------------------- 
 starting pymolcas molcas.input.molden > molcas.output.molden at Sun May 15 22:07:20 EDT 2022

Generating link ln -s ./molcas.OrdInt ORDINT 
 -------------------- molden ------------------------
 --------------------------------------------------- 
 starting mo_convert.x at Sun May 15 22:07:35 EDT 2022

 -------------------- mo_convert.x ------------------------
 --------------------------------------------------- 
 starting pymolcas molcas.input.molden > molcas.output.molden at Sun May 15 22:07:35 EDT 2022

Generating link ln -s ./molcas.OrdInt ORDINT 
 -------------------- molden ------------------------
 --------------------------------------------------- 
 starting mo_convert.x at Sun May 15 22:07:50 EDT 2022

 -------------------- mo_convert.x ------------------------
 --------------------------------------------------- 
 starting pymolcas molcas.input.molden > molcas.output.molden at Sun May 15 22:07:50 EDT 2022

Generating link ln -s ./molcas.OrdInt ORDINT 
 -------------------- molden ------------------------
 --------------------------------------------------- 
 starting mo_convert.x at Sun May 15 22:08:05 EDT 2022

 -------------------- mo_convert.x ------------------------
 --------------------------------------------------- 
 starting pymolcas molcas.input.molden > molcas.output.molden at Sun May 15 22:08:05 EDT 2022

Generating link ln -s ./molcas.OrdInt ORDINT 
 -------------------- molden ------------------------
 --------------------------------------------------- 
 starting mo_convert.x at Sun May 15 22:08:20 EDT 2022

 -------------------- mo_convert.x ------------------------
 --------------------------------------------------- 
 starting pymolcas molcas.input.molden > molcas.output.molden at Sun May 15 22:08:21 EDT 2022

Generating link ln -s ./molcas.OrdInt ORDINT 
 -------------------- molden ------------------------
 --------------------------------------------------- 
 

 +++++++++++ STARTING GRADIENTS AND NAD. COUPLINGS CALCULATION +++++++++++ 

 Using new transition density code ... 
INFO: this is a frozen core gradient calculation
starting cidrt.x  -m 200000 < cidrtin.cigrd > cidrtls.cigrd at Sun May 15 22:08:35 EDT 2022

 -------------------- cidrt.x ------------------------
 total number of orbitals            :   246
 number of frozen core orbitals      :    18
 number of frozen virtual orbitals   :     0
 number of internal orbitals         :    14
 number of external orbitals         :   214
 spatial symmetry:   a  
 
 total number of configurations  282461366
 number of reference configurations  1666
 --------------------------------------------------- 
 starting tran.x -m 200000  at Sun May 15 22:08:42 EDT 2022

 -------------------- tran.x ------------------------
 --------------------------------------------------- 
 ---- Computing 8 gradient(s)  ----

 --- Computing gradient for DRT:1, State; 1

starting cigrd.x -m 200000 at Sun May 15 22:14:29 EDT 2022

 -------------------- cigrd.x ------------------------
 Total energy (ciudg) :  -286.035234513565 
  Effective energy     :  -286.035234524921 
  Delta E              :     0.000000011356 
  --------------------------------------------------- 
 starting tran.x -m 200000  at Sun May 15 22:21:38 EDT 2022

 -------------------- tran.x ------------------------
 --------------------------------------------------- 
 starting pymolcas molcas.input.alaska > molcas.output.alaska  at Sun May 15 22:26:52 EDT 2022

Generating link ln -s ./molcas.OrdInt ORDINT 
 -------------------- alaska ------------------------
 --------------------------------------------------- 
 cartesian gradient by alaska (MOLCAS)

 === Gradient of DRT 1, state 1 === 
  -0.106676D-08  -0.329942D+00  -0.133441D+00
  -0.157389D-08  -0.351662D-02  -0.680784D-01
   0.951664D-08  -0.276867D-01   0.269911D-01
   0.971910D-08   0.283013D-01   0.257784D-01
  -0.181994D-07  -0.163736D-01  -0.225792D-01
   0.294547D-08   0.162407D-01  -0.232382D-01
  -0.856439D-09  -0.271165D-03   0.228431D-02
   0.780437D-09   0.320456D+00   0.203960D+00
  -0.438397D-09   0.124813D-01  -0.100490D-01
   0.151498D-09   0.311718D-02   0.102521D-02
  -0.110327D-08  -0.298806D-02   0.119392D-02
   0.120210D-08   0.129829D-02  -0.152117D-02
  -0.828342D-09  -0.112164D-02  -0.159394D-02
  -0.248751D-09   0.512254D-05  -0.732068D-03
===================================
 --- Computing gradient for DRT:1, State; 2

starting cigrd.x -m 200000 at Sun May 15 22:28:14 EDT 2022

 -------------------- cigrd.x ------------------------
 Total energy (ciudg) :  -285.880039568795 
  Effective energy     :  -285.880039580788 
  Delta E              :     0.000000011993 
  --------------------------------------------------- 
 starting tran.x -m 200000  at Sun May 15 22:35:33 EDT 2022

 -------------------- tran.x ------------------------
 --------------------------------------------------- 
 starting pymolcas molcas.input.alaska > molcas.output.alaska  at Sun May 15 22:40:48 EDT 2022

Generating link ln -s ./molcas.OrdInt ORDINT 
 -------------------- alaska ------------------------
 --------------------------------------------------- 
 cartesian gradient by alaska (MOLCAS)

 === Gradient of DRT 1, state 2 === 
   0.339973D-08  -0.331435D+00  -0.212166D+00
  -0.106399D-08  -0.382612D-04  -0.251484D-04
   0.114616D-07  -0.626116D-06   0.172240D-04
  -0.153076D-08  -0.971862D-05  -0.546540D-04
  -0.978397D-08   0.387095D-04  -0.349063D-04
  -0.373560D-08   0.183937D-04   0.320009D-04
   0.450627D-08  -0.984876D-05   0.305573D-04
  -0.637196D-09   0.331508D+00   0.212199D+00
  -0.500848D-09  -0.434396D-04   0.112368D-04
   0.452745D-09  -0.129197D-04   0.266180D-05
  -0.644025D-09  -0.349650D-05   0.116984D-04
  -0.413649D-09  -0.121538D-04  -0.109737D-04
  -0.145633D-08   0.157046D-05  -0.124556D-04
  -0.539693D-10  -0.103298D-05  -0.412753D-06
===================================
 --- Computing gradient for DRT:1, State; 3

starting cigrd.x -m 200000 at Sun May 15 22:42:12 EDT 2022

 -------------------- cigrd.x ------------------------
 Total energy (ciudg) :  -285.855753683822 
  Effective energy     :  -285.855753696492 
  Delta E              :     0.000000012670 
  --------------------------------------------------- 
 starting tran.x -m 200000  at Sun May 15 22:49:29 EDT 2022

 -------------------- tran.x ------------------------
 --------------------------------------------------- 
 starting pymolcas molcas.input.alaska > molcas.output.alaska  at Sun May 15 22:54:39 EDT 2022

Generating link ln -s ./molcas.OrdInt ORDINT 
 -------------------- alaska ------------------------
 --------------------------------------------------- 
 cartesian gradient by alaska (MOLCAS)

 === Gradient of DRT 1, state 3 === 
   0.176282D-08  -0.331616D+00  -0.150885D+00
  -0.127501D-08  -0.267230D-02  -0.519860D-01
   0.120405D-07  -0.216403D-02   0.625023D-01
   0.581903D-08   0.233011D-02   0.606490D-01
  -0.234321D-07   0.109167D-01  -0.539824D-01
   0.709033D-08  -0.114249D-01  -0.539258D-01
  -0.306771D-09   0.407376D-04  -0.541687D-02
  -0.603639D-09   0.323608D+00   0.204572D+00
  -0.202484D-09   0.107373D-01  -0.100425D-01
  -0.172382D-08   0.205991D-02   0.806195D-03
   0.314609D-09  -0.198686D-02   0.977905D-03
   0.202884D-08  -0.144527D-03  -0.127468D-02
  -0.162499D-08   0.311725D-03  -0.134223D-02
   0.112681D-09   0.441726D-05  -0.651872D-03
===================================
 --- Computing gradient for DRT:1, State; 4

starting cigrd.x -m 200000 at Sun May 15 22:56:02 EDT 2022

 -------------------- cigrd.x ------------------------
 Total energy (ciudg) :  -285.803704482916 
  Effective energy     :  -285.803704493260 
  Delta E              :     0.000000010344 
  --------------------------------------------------- 
 starting tran.x -m 200000  at Sun May 15 23:03:09 EDT 2022

 -------------------- tran.x ------------------------
 --------------------------------------------------- 
 starting pymolcas molcas.input.alaska > molcas.output.alaska  at Sun May 15 23:08:26 EDT 2022

Generating link ln -s ./molcas.OrdInt ORDINT 
 -------------------- alaska ------------------------
 --------------------------------------------------- 
 cartesian gradient by alaska (MOLCAS)

 === Gradient of DRT 1, state 4 === 
  -0.554113D-09  -0.331749D+00  -0.182220D+00
  -0.763755D-09  -0.767767D-03  -0.126966D-01
   0.199959D-07  -0.242825D-01   0.677892D-01
  -0.490034D-08   0.245360D-01   0.677313D-01
  -0.175326D-07  -0.270791D-01  -0.698130D-01
   0.145606D-07   0.271814D-01  -0.702768D-01
  -0.607231D-08  -0.277400D-03  -0.410299D-02
   0.132270D-09   0.324457D+00   0.208440D+00
  -0.267133D-09   0.799040D-02  -0.457583D-02
  -0.293125D-08  -0.239793D-03  -0.104807D-03
  -0.412335D-09   0.233810D-03  -0.929190D-04
   0.115916D-09  -0.142990D-03  -0.695224D-03
   0.322221D-09   0.140378D-03  -0.714395D-03
  -0.169296D-08  -0.207237D-06   0.133197D-02
===================================
 --- Computing gradient for DRT:2, State; 1

starting cigrd.x -m 200000 at Sun May 15 23:09:47 EDT 2022

 -------------------- cigrd.x ------------------------
 Total energy (ciudg) :  -285.887468077759 
  Effective energy     :  -285.887468088760 
  Delta E              :     0.000000011001 
  --------------------------------------------------- 
 starting tran.x -m 200000  at Sun May 15 23:17:04 EDT 2022

 -------------------- tran.x ------------------------
 --------------------------------------------------- 
 starting pymolcas molcas.input.alaska > molcas.output.alaska  at Sun May 15 23:22:20 EDT 2022

Generating link ln -s ./molcas.OrdInt ORDINT 
 -------------------- alaska ------------------------
 --------------------------------------------------- 
 cartesian gradient by alaska (MOLCAS)

 === Gradient of DRT 2, state 1 === 
   0.166383D-08  -0.329623D+00  -0.116372D+00
   0.462350D-09  -0.653181D-02  -0.452194D-01
   0.993296D-08   0.105064D-01  -0.175854D-01
   0.932206D-08  -0.701686D-02  -0.184974D-01
  -0.285574D-07   0.354134D-01   0.216202D-01
   0.134359D-07  -0.387939D-01   0.228958D-01
  -0.525679D-09   0.254972D-02  -0.410480D-01
  -0.168300D-08   0.319743D+00   0.205144D+00
  -0.104893D-08   0.133272D-01  -0.922485D-02
  -0.288235D-08   0.403445D-02  -0.466261D-03
  -0.507977D-09  -0.391101D-02  -0.247742D-03
   0.167923D-09   0.110715D-02  -0.587977D-03
  -0.223227D-09  -0.885218D-03  -0.610140D-03
   0.443562D-09   0.800302D-04   0.198750D-03
===================================
 --- Computing gradient for DRT:2, State; 2

starting cigrd.x -m 200000 at Sun May 15 23:23:43 EDT 2022

 -------------------- cigrd.x ------------------------
 Total energy (ciudg) :  -285.881761588475 
  Effective energy     :  -285.881761600692 
  Delta E              :     0.000000012217 
  --------------------------------------------------- 
 starting tran.x -m 200000  at Sun May 15 23:30:42 EDT 2022

 -------------------- tran.x ------------------------
 --------------------------------------------------- 
 starting pymolcas molcas.input.alaska > molcas.output.alaska  at Sun May 15 23:36:09 EDT 2022

Generating link ln -s ./molcas.OrdInt ORDINT 
 -------------------- alaska ------------------------
 --------------------------------------------------- 
 cartesian gradient by alaska (MOLCAS)

 === Gradient of DRT 2, state 2 === 
  -0.305531D-08  -0.330233D+00  -0.212343D+00
   0.207255D-08   0.164235D-03  -0.150975D-02
   0.131895D-07  -0.465450D-03   0.689971D-03
   0.110171D-08   0.354897D-03   0.712982D-03
  -0.105210D-07  -0.480688D-03  -0.102930D-02
  -0.322215D-08   0.587459D-03  -0.940470D-03
   0.215864D-08  -0.148642D-05   0.682769D-03
   0.717746D-09   0.332131D+00   0.212513D+00
  -0.264570D-09  -0.208100D-02   0.130800D-02
   0.608195D-10  -0.337654D-04   0.109359D-04
  -0.845541D-09   0.752797D-04   0.213028D-04
   0.207665D-09   0.536081D-05  -0.513849D-04
  -0.804141D-09  -0.241575D-04  -0.403266D-04
  -0.795875D-09   0.205378D-05  -0.239266D-04
===================================
 --- Computing gradient for DRT:2, State; 3

starting cigrd.x -m 200000 at Sun May 15 23:37:30 EDT 2022

 -------------------- cigrd.x ------------------------
 Total energy (ciudg) :  -285.874657737282 
  Effective energy     :  -285.874657750016 
  Delta E              :     0.000000012734 
  --------------------------------------------------- 
 starting tran.x -m 200000  at Sun May 15 23:44:48 EDT 2022

 -------------------- tran.x ------------------------
 --------------------------------------------------- 
 starting pymolcas molcas.input.alaska > molcas.output.alaska  at Sun May 15 23:50:11 EDT 2022

Generating link ln -s ./molcas.OrdInt ORDINT 
 -------------------- alaska ------------------------
 --------------------------------------------------- 
 cartesian gradient by alaska (MOLCAS)

 === Gradient of DRT 2, state 3 === 
  -0.176776D-08  -0.332940D+00  -0.172977D+00
   0.516279D-08   0.291651D-03  -0.359863D-01
   0.987129D-08  -0.302221D-02   0.628816D-01
   0.370209D-08   0.289244D-03   0.606147D-01
  -0.176222D-07   0.731327D-02  -0.612890D-01
   0.178952D-08  -0.484990D-02  -0.626194D-01
  -0.179643D-08  -0.236781D-02   0.157701D-01
   0.315159D-09   0.325703D+00   0.204552D+00
  -0.101992D-09   0.946892D-02  -0.102892D-01
   0.489062D-10   0.136987D-02   0.147694D-02
  -0.102214D-08  -0.131288D-02   0.159074D-02
   0.162421D-08  -0.570392D-03  -0.110106D-02
   0.343598D-09   0.693049D-03  -0.122394D-02
  -0.547077D-09  -0.654700D-04  -0.139976D-02
===================================
 --- Computing gradient for DRT:2, State; 4

starting cigrd.x -m 200000 at Sun May 15 23:51:35 EDT 2022

 -------------------- cigrd.x ------------------------
 Total energy (ciudg) :  -285.846486552167 
  Effective energy     :  -285.846486563379 
[...]
  -3.854893E+00  -2.077683E-07   2.811590E-07
   1.420351E+00  -1.614192E-07  -6.590656E-08
   8.772794E-01   1.731870E-07   2.046826E-08
   1.003504E+00  -2.711235E-07  -2.563562E-08
   9.986550E-01   3.184738E-07  -3.325398E-08
  -1.152200E+00   3.719236E-08   1.642022E-07
  -2.554131E-01   1.167716E-07   5.532883E-08
   3.815552E-01  -3.759475E-07   1.098623E-07
  -1.765041E-01  -1.642117E-07   1.718101E-08
  -1.504535E-01   1.847507E-07   2.542188E-07
  -1.027205E-01  -5.407076E-08   5.122324E-08
  -4.356433E-02   1.300632E-08   1.489437E-08
  -1.075674E-01   1.608136E-08   5.525819E-08
===================================

 Norm of the nonadiabatic coupling vector: 
 |h(drt2.state1,drt2.state2)|= 4.76360352455108 

 Cross-check of the non-adiabatic coupling term:
  DeltaE= -0.00570648929999606

  <L>*dE form CIGRD   :    0.0000926563    -0.0000000000    -0.0000000000
  <L>*dE form NADCOUPL:   -0.0000000047     0.0009426763     0.0001029853
 -------------------------------------------------------------------------
  Difference          :    0.0000926610    -0.0009426763    -0.0001029853

 NOTE: This test is meaningless at a point of conical intersection!


 -------- NAD. COUPLING for DRT:2 STATE:1 AND DRT:2 STATE:3 --------
opening file =ciudgls.drt2.sp
opening file =ciudgls.drt2.sp
extracted: energy1= -285.8874680776   energy2=-285.8746577372   deltae=-0.0128103403999944
starting cigrd.x -m 200000 at Mon May 16 01:47:29 EDT 2022

 -------------------- cigrd.x ------------------------
 Total energy (ciudg) :     0.000000000355 
  Effective energy     :    -0.000000002885 
  Delta E              :     0.000000003240 
  --------------------------------------------------- 
 starting tran.x -m 200000  at Mon May 16 01:54:28 EDT 2022

 -------------------- tran.x ------------------------
 --------------------------------------------------- 
  adding keyword NONUC to alaska input
starting pymolcas molcas.input.alaska > molcas.output.alaska  at Mon May 16 01:59:48 EDT 2022

Generating link ln -s ./molcas.OrdInt ORDINT 
 -------------------- alaska ------------------------
 --------------------------------------------------- 
 cartesian gradient by alaska (MOLCAS)

 Calculating the Dx(r,s) term of D[CSF] nonadiabatic coupling term.
dxcalc: INPUT LINE SEPARATOR 
 
starting tran.x -m 200000  at Mon May 16 02:01:02 EDT 2022

 -------------------- tran.x ------------------------
 --------------------------------------------------- 
 starting tdmrunfile.x > tdmrunfilels at Mon May 16 02:01:03 EDT 2022

 -------------------- tdmrunfile.x ------------------------
 --------------------------------------------------- 
 starting pymolcas molcas.input.alaska > molcas.output.alaska  at Mon May 16 02:01:03 EDT 2022

Generating link ln -s ./molcas.OrdInt ORDINT 
 -------------------- alaska ------------------------
 --------------------------------------------------- 
 
 === Non-adiabatic coupling for DRT 2 STATE 1 and DRT 2 STATE 3 === 
   4.240410E-07  -9.902390E-01   8.256029E-02
   2.048402E-08   7.202697E+00  -1.776726E-02
  -3.820605E-07  -3.425938E+00   6.253244E-01
  -8.965970E-08  -3.474770E+00  -8.780493E-01
  -1.927176E-07   3.321487E+00   1.623085E+00
   2.726234E-07   3.230112E+00  -1.360477E+00
   1.941405E-07  -5.675087E+00  -8.086334E-02
  -1.624168E-07   6.543490E-04  -1.840986E-02
  -5.031037E-08   1.457613E-02   2.622463E-02
   2.926452E-08   1.895962E-02   6.093968E-02
  -7.387174E-08   1.153600E-02  -6.721959E-02
   2.339106E-08  -4.332963E-02   4.530634E-02
  -3.301243E-08  -4.867382E-02  -4.275557E-02
   2.010988E-08  -1.485115E-01   2.404410E-03
===================================

 Norm of the nonadiabatic coupling vector: 
 |h(drt2.state1,drt2.state3)|= 11.6637960257301 

 Cross-check of the non-adiabatic coupling term:
  DeltaE= -0.0128103403999944

  <L>*dE form CIGRD   :    0.0002080015    -0.0000000000    -0.0000000000
  <L>*dE form NADCOUPL:   -0.0164998889    -0.0000000055     0.0000000157
 -------------------------------------------------------------------------
  Difference          :    0.0167078904     0.0000000055    -0.0000000157

 NOTE: This test is meaningless at a point of conical intersection!


 -------- NAD. COUPLING for DRT:2 STATE:1 AND DRT:2 STATE:4 --------
opening file =ciudgls.drt2.sp
opening file =ciudgls.drt2.sp
extracted: energy1= -285.8874680776   energy2=-285.8464865521   deltae=-0.0409815255000012
starting cigrd.x -m 200000 at Mon May 16 02:02:16 EDT 2022

 -------------------- cigrd.x ------------------------
 Total energy (ciudg) :     0.000000000389 
  Effective energy     :     0.000000007003 
  Delta E              :    -0.000000006614 
  --------------------------------------------------- 
 starting tran.x -m 200000  at Mon May 16 02:09:13 EDT 2022

 -------------------- tran.x ------------------------
 --------------------------------------------------- 
  adding keyword NONUC to alaska input
starting pymolcas molcas.input.alaska > molcas.output.alaska  at Mon May 16 02:14:23 EDT 2022

Generating link ln -s ./molcas.OrdInt ORDINT 
 -------------------- alaska ------------------------
 --------------------------------------------------- 
 cartesian gradient by alaska (MOLCAS)

 Calculating the Dx(r,s) term of D[CSF] nonadiabatic coupling term.
dxcalc: INPUT LINE SEPARATOR 
 
starting tran.x -m 200000  at Mon May 16 02:15:32 EDT 2022

 -------------------- tran.x ------------------------
 --------------------------------------------------- 
 starting tdmrunfile.x > tdmrunfilels at Mon May 16 02:15:32 EDT 2022

 -------------------- tdmrunfile.x ------------------------
 --------------------------------------------------- 
 starting pymolcas molcas.input.alaska > molcas.output.alaska  at Mon May 16 02:15:32 EDT 2022

Generating link ln -s ./molcas.OrdInt ORDINT 
 -------------------- alaska ------------------------
 --------------------------------------------------- 
 
 === Non-adiabatic coupling for DRT 2 STATE 1 and DRT 2 STATE 4 === 
   7.808274E-08  -5.114547E-03  -5.182728E-03
  -3.014685E-08   1.629817E-02   2.810406E-01
   6.440079E-08   3.083417E-01  -1.201875E+00
   6.057698E-08  -3.156895E-01  -1.204006E+00
  -1.443869E-07   4.153238E-01   1.265979E+00
   8.243722E-08  -4.102550E-01   1.245693E+00
  -1.347367E-07  -1.010269E-02  -4.410152E-01
  -5.132981E-09   1.505939E-02   1.433591E-02
  -7.419482E-09  -1.343995E-02   1.397423E-02
  -2.733757E-08   1.784117E-02  -8.204343E-03
  -1.840251E-08  -1.858074E-02  -7.965027E-03
   4.442865E-08   1.530390E-02   1.672975E-02
   2.395206E-08  -1.479249E-02   1.724420E-02
   1.370108E-08   9.206984E-07   8.816920E-03
===================================

 Norm of the nonadiabatic coupling vector: 
 |h(drt2.state1,drt2.state4)|= 2.61930053030927 

 Cross-check of the non-adiabatic coupling term:
  DeltaE= -0.0409815255000012

  <L>*dE form CIGRD   :    0.0006654170    -0.0000000000    -0.0000000000
  <L>*dE form NADCOUPL:    0.0003327649     0.0000000208     0.0000000189
 -------------------------------------------------------------------------
  Difference          :    0.0003326522    -0.0000000208    -0.0000000189

 NOTE: This test is meaningless at a point of conical intersection!


 -------- NAD. COUPLING for DRT:2 STATE:2 AND DRT:2 STATE:3 --------
opening file =ciudgls.drt2.sp
opening file =ciudgls.drt2.sp
extracted: energy1= -285.8817615883   energy2=-285.8746577372   deltae=-0.00710385109999834
starting cigrd.x -m 200000 at Mon May 16 02:16:44 EDT 2022

 -------------------- cigrd.x ------------------------
 Total energy (ciudg) :     0.000000000279 
  Effective energy     :     0.000000002946 
  Delta E              :    -0.000000002667 
  --------------------------------------------------- 
 starting tran.x -m 200000  at Mon May 16 02:23:41 EDT 2022

 -------------------- tran.x ------------------------
 --------------------------------------------------- 
  adding keyword NONUC to alaska input
starting pymolcas molcas.input.alaska > molcas.output.alaska  at Mon May 16 02:28:30 EDT 2022

Generating link ln -s ./molcas.OrdInt ORDINT 
 -------------------- alaska ------------------------
 --------------------------------------------------- 
 cartesian gradient by alaska (MOLCAS)

 Calculating the Dx(r,s) term of D[CSF] nonadiabatic coupling term.
dxcalc: INPUT LINE SEPARATOR 
 
starting tran.x -m 200000  at Mon May 16 02:29:33 EDT 2022

 -------------------- tran.x ------------------------
 --------------------------------------------------- 
 starting tdmrunfile.x > tdmrunfilels at Mon May 16 02:29:33 EDT 2022

 -------------------- tdmrunfile.x ------------------------
 --------------------------------------------------- 
 starting pymolcas molcas.input.alaska > molcas.output.alaska  at Mon May 16 02:29:33 EDT 2022

Generating link ln -s ./molcas.OrdInt ORDINT 
 -------------------- alaska ------------------------
 --------------------------------------------------- 
 
 === Non-adiabatic coupling for DRT 2 STATE 2 and DRT 2 STATE 3 === 
   1.925586E-01  -1.576558E-07   9.332722E-07
   4.718363E-02   1.508440E-07  -3.816656E-07
   7.418703E-01  -9.830953E-08  -2.751481E-07
  -1.013504E+00   7.046536E-08  -1.606619E-07
  -6.394745E-01   3.191743E-07   1.316906E-07
   6.942749E-01  -1.706054E-07  -3.283332E-07
  -3.067596E-02  -1.048282E-07   1.663414E-07
   1.345838E-01   3.324511E-08   4.204014E-08
  -2.246360E-01   3.274184E-08  -4.572088E-08
  -2.938419E-01   1.161561E-07   5.722459E-08
   3.013159E-01  -1.748084E-07  -7.403005E-08
   1.353985E-01   1.066863E-08  -3.400086E-08
  -4.660568E-02  -2.598692E-08   1.586236E-08
   2.325199E-03  -1.107668E-09  -4.690081E-08
===================================

 Norm of the nonadiabatic coupling vector: 
 |h(drt2.state2,drt2.state3)|= 1.66582485245844 

 Cross-check of the non-adiabatic coupling term:
  DeltaE= -0.00710385109999834

  <L>*dE form CIGRD   :    0.0001153452    -0.0000000000    -0.0000000000
  <L>*dE form NADCOUPL:    0.0000000094     0.0000367152     0.0007396947
 -------------------------------------------------------------------------
  Difference          :    0.0001153358    -0.0000367152    -0.0007396947

 NOTE: This test is meaningless at a point of conical intersection!


 -------- NAD. COUPLING for DRT:2 STATE:2 AND DRT:2 STATE:4 --------
opening file =ciudgls.drt2.sp
opening file =ciudgls.drt2.sp
extracted: energy1= -285.8817615883   energy2=-285.8464865521   deltae=-0.0352750362000052
starting cigrd.x -m 200000 at Mon May 16 02:30:36 EDT 2022

 -------------------- cigrd.x ------------------------
 Total energy (ciudg) :     0.000000000063 
  Effective energy     :     0.000000000479 
  Delta E              :    -0.000000000416 
  --------------------------------------------------- 
 starting tran.x -m 200000  at Mon May 16 02:37:50 EDT 2022

 -------------------- tran.x ------------------------
 --------------------------------------------------- 
  adding keyword NONUC to alaska input
starting pymolcas molcas.input.alaska > molcas.output.alaska  at Mon May 16 02:42:36 EDT 2022

Generating link ln -s ./molcas.OrdInt ORDINT 
 -------------------- alaska ------------------------
 --------------------------------------------------- 
 cartesian gradient by alaska (MOLCAS)

 Calculating the Dx(r,s) term of D[CSF] nonadiabatic coupling term.
dxcalc: INPUT LINE SEPARATOR 
 
starting tran.x -m 200000  at Mon May 16 02:43:38 EDT 2022

 -------------------- tran.x ------------------------
 --------------------------------------------------- 
 starting tdmrunfile.x > tdmrunfilels at Mon May 16 02:43:38 EDT 2022

 -------------------- tdmrunfile.x ------------------------
 --------------------------------------------------- 
 starting pymolcas molcas.input.alaska > molcas.output.alaska  at Mon May 16 02:43:38 EDT 2022

Generating link ln -s ./molcas.OrdInt ORDINT 
 -------------------- alaska ------------------------
 --------------------------------------------------- 
 
 === Non-adiabatic coupling for DRT 2 STATE 2 and DRT 2 STATE 4 === 
  -3.983940E-02  -2.364586E-08  -2.810663E-10
   1.479329E-01  -9.245658E-10  -3.098854E-09
  -5.112076E-02   8.227578E-09   6.335648E-09
  -2.842018E-02   2.194885E-08   5.393862E-09
  -6.416051E-02   1.233602E-08   1.352700E-08
  -6.244520E-02   4.143295E-08  -6.509236E-09
   7.007435E-02  -6.451360E-08  -1.519703E-08
   6.954255E-03   6.987012E-09  -5.229852E-09
  -1.471478E-02   5.121364E-09   4.214731E-09
   1.579210E-02   1.530230E-09   7.087815E-10
   1.484316E-02  -4.244208E-09  -1.977115E-10
   5.607701E-03   9.226376E-10   3.523861E-09
   1.692873E-03  -2.105443E-09  -4.084034E-09
   7.559120E-03  -3.052457E-09   8.955482E-10
===================================

 Norm of the nonadiabatic coupling vector: 
 |h(drt2.state2,drt2.state4)|= 0.201605531048593 

 Cross-check of the non-adiabatic coupling term:
  DeltaE= -0.0352750362000052

  <L>*dE form CIGRD   :    0.0005727608    -0.0000000000    -0.0000000000
  <L>*dE form NADCOUPL:   -0.0000000010     0.0009721418     0.0001474719
 -------------------------------------------------------------------------
  Difference          :    0.0005727617    -0.0009721418    -0.0001474719

 NOTE: This test is meaningless at a point of conical intersection!


 -------- NAD. COUPLING for DRT:2 STATE:3 AND DRT:2 STATE:4 --------
opening file =ciudgls.drt2.sp
opening file =ciudgls.drt2.sp
extracted: energy1= -285.8746577372   energy2=-285.8464865521   deltae=-0.0281711851000068
starting cigrd.x -m 200000 at Mon May 16 02:44:39 EDT 2022

 -------------------- cigrd.x ------------------------
 Total energy (ciudg) :    -0.000000000922 
  Effective energy     :    -0.000000005342 
  Delta E              :     0.000000004420 
  --------------------------------------------------- 
 starting tran.x -m 200000  at Mon May 16 02:51:55 EDT 2022

 -------------------- tran.x ------------------------
 --------------------------------------------------- 
  adding keyword NONUC to alaska input
starting pymolcas molcas.input.alaska > molcas.output.alaska  at Mon May 16 02:56:56 EDT 2022

Generating link ln -s ./molcas.OrdInt ORDINT 
 -------------------- alaska ------------------------
 --------------------------------------------------- 
 cartesian gradient by alaska (MOLCAS)

 Calculating the Dx(r,s) term of D[CSF] nonadiabatic coupling term.
dxcalc: INPUT LINE SEPARATOR 
 
starting tran.x -m 200000  at Mon May 16 02:58:05 EDT 2022

 -------------------- tran.x ------------------------
 --------------------------------------------------- 
 starting tdmrunfile.x > tdmrunfilels at Mon May 16 02:58:06 EDT 2022

 -------------------- tdmrunfile.x ------------------------
 --------------------------------------------------- 
 starting pymolcas molcas.input.alaska > molcas.output.alaska  at Mon May 16 02:58:06 EDT 2022

Generating link ln -s ./molcas.OrdInt ORDINT 
 -------------------- alaska ------------------------
 --------------------------------------------------- 
 
 === Non-adiabatic coupling for DRT 2 STATE 3 and DRT 2 STATE 4 === 
  -5.944225E-08  -2.591796E-01  -1.421755E-02
  -5.422538E-09   1.669905E+00  -6.945565E-03
  -2.390959E-07  -4.706184E-01   1.179978E-01
   2.514296E-07  -4.593861E-01  -6.948582E-02
  -5.455062E-08   3.254155E-01   8.102606E-01
   1.476290E-07   3.387105E-01  -8.585163E-01
  -1.168985E-07  -1.143605E+00   1.337831E-02
   1.397964E-08   1.294738E-02  -1.781768E-02
   1.779186E-08   9.231217E-03   2.558897E-02
   4.912667E-10  -1.694708E-02  -4.696140E-03
   4.034685E-08  -1.547915E-02   5.229718E-03
  -1.366623E-08   1.303502E-02  -1.427691E-02
  -1.687036E-08   1.393165E-02   1.386717E-02
   3.427633E-08  -1.000001E-02  -3.816112E-04
===================================

 Norm of the nonadiabatic coupling vector: 
 |h(drt2.state3,drt2.state4)|= 2.49642570598634 

 Cross-check of the non-adiabatic coupling term:
  DeltaE= -0.0281711851000068

  <L>*dE form CIGRD   :    0.0004574155    -0.0000000000    -0.0000000000
  <L>*dE form NADCOUPL:    0.0004554790     0.0000000022     0.0000000500
 -------------------------------------------------------------------------
  Difference          :    0.0000019365    -0.0000000022    -0.0000000500

 NOTE: This test is meaningless at a point of conical intersection!



============== timings ===================

   unik.gets.x    
   mcdrt.x        
   mcuft.x        
 * mcscf.x          walltime    0:02:24
   mcpc.x         
   mcpc.x         
   mcpc.x         
   mcpc.x         
   exptvl.x       
   exptvl.x       
   exptvl.x       
   exptvl.x       
   cidrt.x        
   cidrt.x        
 * tran.x           walltime    0:05:22
 * pciudg.x -m 19000   walltime   16:03:06
 * cipc.x           walltime    0:00:11
 * pciudg.x -m 19000   walltime   36:40:02
 * cipc.x           walltime    0:00:24
 * reindex.x        walltime    0:04:15
 * pciudg.x -m 19000   walltime    1:51:50
 * transci.x        walltime    0:02:24
 * transci.x        walltime    0:02:19
 * transci.x        walltime    0:02:21
 * transci.x        walltime    0:02:17
 * transci.x        walltime    0:02:16
 * transci.x        walltime    0:02:17
 * transci.x        walltime    0:04:21
 * transci.x        walltime    0:04:16
 * transci.x        walltime    0:04:09
 * transci.x        walltime    0:04:09
 * transci.x        walltime    0:04:11
 * transci.x        walltime    0:04:10
   exptvl.x       
   exptvl.x       
   exptvl.x       
   exptvl.x       
   exptvl.x       
   exptvl.x       
   exptvl.x       
   exptvl.x       
   mo_convert.x   
   mo_convert.x   
   mo_convert.x   
   mo_convert.x   
   mo_convert.x   
   mo_convert.x   
   mo_convert.x   
   mo_convert.x   
   mo_convert.x   
   mo_convert.x   
   mo_convert.x   
   mo_convert.x   
   mo_convert.x   
   mo_convert.x   
 * cidrt.x          walltime    0:00:07
 * tran.x           walltime    0:05:47
 * cigrd.x          walltime    0:07:09
 * tran.x           walltime    0:05:14
 * cigrd.x          walltime    0:07:18
 * tran.x           walltime    0:05:14
 * cigrd.x          walltime    0:07:16
 * tran.x           walltime    0:05:10
 * cigrd.x          walltime    0:07:06
 * tran.x           walltime    0:05:16
 * cigrd.x          walltime    0:07:16
 * tran.x           walltime    0:05:15
 * cigrd.x          walltime    0:06:57
 * tran.x           walltime    0:05:26
 * cigrd.x          walltime    0:07:17
 * tran.x           walltime    0:05:22
 * cigrd.x          walltime    0:07:00
 * tran.x           walltime    0:05:14
 * cigrd.x          walltime    0:07:11
 * tran.x           walltime    0:05:07
   tran.x         
   tdmrunfile.x   
 * cigrd.x          walltime    0:07:00
 * tran.x           walltime    0:05:13
   tran.x         
   tdmrunfile.x   
 * cigrd.x          walltime    0:07:33
 * tran.x           walltime    0:04:52
   tran.x         
   tdmrunfile.x   
 * cigrd.x          walltime    0:06:53
 * tran.x           walltime    0:04:56
   tran.x         
   tdmrunfile.x   
 * cigrd.x          walltime    0:07:04
 * tran.x           walltime    0:05:12
   tran.x         
   tdmrunfile.x   
 * cigrd.x          walltime    0:08:07
 * tran.x           walltime    0:04:59
   tran.x         
   tdmrunfile.x   
 * cigrd.x          walltime    0:07:05
 * tran.x           walltime    0:05:00
   tran.x         
   tdmrunfile.x   
 * cigrd.x          walltime    0:06:58
 * tran.x           walltime    0:05:19
   tran.x         
   tdmrunfile.x   
 * cigrd.x          walltime    0:06:56
 * tran.x           walltime    0:05:10
   tran.x         
   tdmrunfile.x   
 * cigrd.x          walltime    0:06:56
 * tran.x           walltime    0:04:48
   tran.x         
   tdmrunfile.x   
 * cigrd.x          walltime    0:07:13
 * tran.x           walltime    0:04:45
   tran.x         
   tdmrunfile.x   
 * cigrd.x          walltime    0:07:14
 * tran.x           walltime    0:05:01
   tran.x         
   tdmrunfile.x   

==========================================

