[Molden Format]
[Atoms] AU
  N     1    7    -0.0027499800   -0.0011275200   -4.2937670300        
  C     2    6    -0.0021904800   -0.0010751100   -1.7762641100        
  C     3    6     0.0198084300   -2.3392455200   -0.4114640300        
  C     4    6    -0.0235828000    2.3371521300   -0.4115517400        
  C     5    6     0.0329426500   -2.3003998900    2.1641900100        
  C     6    6    -0.0355722300    2.2984137400    2.1641094900        
  C     7    6    -0.0010235200   -0.0009657900    3.4748159700        
  H     8    1    -0.3395931100   -1.6207567200   -5.3124328700        
  H     9    1     0.3336403200    1.6184592500   -5.3126499300        
  H    10    1     0.0535340900   -4.0741404700   -1.4457304200        
  H    11    1    -0.0577681600    4.0720040200   -1.4458752900        
  H    12    1     0.0722526100   -4.0420262800    3.1968641900        
  H    13    1    -0.0744232100    4.0400831400    3.1967285200        
  H    14    1    -0.0005731400   -0.0009235900    5.5014307800        
[5D]
[7F]
[GTO]
  1  0
   s    12 1.00
  0.114200D+05  0.172695D-04
  0.171200D+04  0.134411D-03
  0.389300D+03  0.694561D-03
  0.110000D+03  0.278531D-02
  0.355700D+02  0.863457D-02
  0.125400D+02  0.199805D-01
  0.464400D+01  0.262908D-01
  0.129300D+01 -0.243845D-01
  0.511800D+00 -0.924934D-01
  0.178700D+00 -0.339683D+00
  0.246240D-01  0.345111D+00
  0.112530D-01  0.752750D+00
   s    10 1.00
  0.114200D+05  0.523000D-03
  0.171200D+04  0.404500D-02
  0.389300D+03  0.207750D-01
  0.110000D+03  0.807269D-01
  0.355700D+02  0.233074D+00
  0.125400D+02  0.433501D+00
  0.464400D+01  0.347472D+00
  0.129300D+01  0.412620D-01
  0.511800D+00 -0.850799D-02
  0.178700D+00  0.238400D-02
   s    10 1.00
  0.114200D+05 -0.115000D-03
  0.171200D+04 -0.895000D-03
  0.389300D+03 -0.462400D-02
  0.110000D+03 -0.185280D-01
  0.355700D+02 -0.573390D-01
  0.125400D+02 -0.132076D+00
  0.464400D+01 -0.172510D+00
  0.129300D+01  0.151814D+00
  0.511800D+00  0.599944D+00
  0.178700D+00  0.387462D+00
   s     1 1.00
  0.129300D+01  0.100000D+01
   s     1 1.00
  0.178700D+00  0.100000D+01
   p     5 1.00
  0.266300D+02  0.146700D-01
  0.594800D+01  0.917640D-01
  0.174200D+01  0.298683D+00
  0.555000D+00  0.498487D+00
  0.172500D+00  0.337023D+00
   p     1 1.00
  0.174200D+01  0.100000D+01
   p     1 1.00
  0.555000D+00  0.100000D+01
   d     1 1.00
  0.165400D+01  0.100000D+01
   d     1 1.00
  0.469000D+00  0.100000D+01
   f     1 1.00
  0.109300D+01  0.100000D+01
  
  2  0
   s    10 1.00
  0.823600D+04  0.531000D-03
  0.123500D+04  0.410800D-02
  0.280800D+03  0.210870D-01
  0.792700D+02  0.818530D-01
  0.255900D+02  0.234817D+00
  0.899700D+01  0.434401D+00
  0.331900D+01  0.346129D+00
  0.905900D+00  0.393780D-01
  0.364300D+00 -0.898300D-02
  0.128500D+00  0.238500D-02
   s    10 1.00
  0.823600D+04 -0.113000D-03
  0.123500D+04 -0.878000D-03
  0.280800D+03 -0.454000D-02
  0.792700D+02 -0.181330D-01
  0.255900D+02 -0.557600D-01
  0.899700D+01 -0.126895D+00
  0.331900D+01 -0.170352D+00
  0.905900D+00  0.140382D+00
  0.364300D+00  0.598684D+00
  0.128500D+00  0.395389D+00
   s     1 1.00
  0.905900D+00  0.100000D+01
   s     1 1.00
  0.364300D+00  0.100000D+01
   p     5 1.00
  0.187100D+02  0.140310D-01
  0.413300D+01  0.868660D-01
  0.120000D+01  0.290216D+00
  0.382700D+00  0.501008D+00
  0.120900D+00  0.343406D+00
   p     1 1.00
  0.382700D+00  0.100000D+01
   p     1 1.00
  0.120900D+00  0.100000D+01
   d     1 1.00
  0.109700D+01  0.100000D+01
   d     1 1.00
  0.318000D+00  0.100000D+01
   f     1 1.00
  0.761000D+00  0.100000D+01
  
  3  0
   s    10 1.00
  0.823600D+04  0.531000D-03
  0.123500D+04  0.410800D-02
  0.280800D+03  0.210870D-01
  0.792700D+02  0.818530D-01
  0.255900D+02  0.234817D+00
  0.899700D+01  0.434401D+00
  0.331900D+01  0.346129D+00
  0.905900D+00  0.393780D-01
  0.364300D+00 -0.898300D-02
  0.128500D+00  0.238500D-02
   s    10 1.00
  0.823600D+04 -0.113000D-03
  0.123500D+04 -0.878000D-03
  0.280800D+03 -0.454000D-02
  0.792700D+02 -0.181330D-01
  0.255900D+02 -0.557600D-01
  0.899700D+01 -0.126895D+00
  0.331900D+01 -0.170352D+00
  0.905900D+00  0.140382D+00
  0.364300D+00  0.598684D+00
  0.128500D+00  0.395389D+00
   s     1 1.00
  0.905900D+00  0.100000D+01
   s     1 1.00
  0.364300D+00  0.100000D+01
   p     5 1.00
  0.187100D+02  0.140310D-01
  0.413300D+01  0.868660D-01
  0.120000D+01  0.290216D+00
  0.382700D+00  0.501008D+00
  0.120900D+00  0.343406D+00
   p     1 1.00
  0.382700D+00  0.100000D+01
   p     1 1.00
  0.120900D+00  0.100000D+01
   d     1 1.00
  0.109700D+01  0.100000D+01
   d     1 1.00
  0.318000D+00  0.100000D+01
   f     1 1.00
  0.761000D+00  0.100000D+01
  
  4  0
   s    10 1.00
  0.823600D+04  0.531000D-03
  0.123500D+04  0.410800D-02
  0.280800D+03  0.210870D-01
  0.792700D+02  0.818530D-01
  0.255900D+02  0.234817D+00
  0.899700D+01  0.434401D+00
  0.331900D+01  0.346129D+00
  0.905900D+00  0.393780D-01
  0.364300D+00 -0.898300D-02
  0.128500D+00  0.238500D-02
   s    10 1.00
  0.823600D+04 -0.113000D-03
  0.123500D+04 -0.878000D-03
  0.280800D+03 -0.454000D-02
  0.792700D+02 -0.181330D-01
  0.255900D+02 -0.557600D-01
  0.899700D+01 -0.126895D+00
  0.331900D+01 -0.170352D+00
  0.905900D+00  0.140382D+00
  0.364300D+00  0.598684D+00
  0.128500D+00  0.395389D+00
   s     1 1.00
  0.905900D+00  0.100000D+01
   s     1 1.00
  0.364300D+00  0.100000D+01
   p     5 1.00
  0.187100D+02  0.140310D-01
  0.413300D+01  0.868660D-01
  0.120000D+01  0.290216D+00
  0.382700D+00  0.501008D+00
  0.120900D+00  0.343406D+00
   p     1 1.00
  0.382700D+00  0.100000D+01
   p     1 1.00
  0.120900D+00  0.100000D+01
   d     1 1.00
  0.109700D+01  0.100000D+01
   d     1 1.00
  0.318000D+00  0.100000D+01
   f     1 1.00
  0.761000D+00  0.100000D+01
  
  5  0
   s    10 1.00
  0.823600D+04  0.531000D-03
  0.123500D+04  0.410800D-02
  0.280800D+03  0.210870D-01
  0.792700D+02  0.818530D-01
  0.255900D+02  0.234817D+00
  0.899700D+01  0.434401D+00
  0.331900D+01  0.346129D+00
  0.905900D+00  0.393780D-01
  0.364300D+00 -0.898300D-02
  0.128500D+00  0.238500D-02
   s    10 1.00
  0.823600D+04 -0.113000D-03
  0.123500D+04 -0.878000D-03
  0.280800D+03 -0.454000D-02
  0.792700D+02 -0.181330D-01
  0.255900D+02 -0.557600D-01
  0.899700D+01 -0.126895D+00
  0.331900D+01 -0.170352D+00
  0.905900D+00  0.140382D+00
  0.364300D+00  0.598684D+00
  0.128500D+00  0.395389D+00
   s     1 1.00
  0.905900D+00  0.100000D+01
   s     1 1.00
  0.364300D+00  0.100000D+01
   p     5 1.00
  0.187100D+02  0.140310D-01
  0.413300D+01  0.868660D-01
  0.120000D+01  0.290216D+00
  0.382700D+00  0.501008D+00
  0.120900D+00  0.343406D+00
   p     1 1.00
  0.382700D+00  0.100000D+01
   p     1 1.00
  0.120900D+00  0.100000D+01
   d     1 1.00
  0.109700D+01  0.100000D+01
   d     1 1.00
  0.318000D+00  0.100000D+01
   f     1 1.00
  0.761000D+00  0.100000D+01
  
  6  0
   s    10 1.00
  0.823600D+04  0.531000D-03
  0.123500D+04  0.410800D-02
  0.280800D+03  0.210870D-01
  0.792700D+02  0.818530D-01
  0.255900D+02  0.234817D+00
  0.899700D+01  0.434401D+00
  0.331900D+01  0.346129D+00
  0.905900D+00  0.393780D-01
  0.364300D+00 -0.898300D-02
  0.128500D+00  0.238500D-02
   s    10 1.00
  0.823600D+04 -0.113000D-03
  0.123500D+04 -0.878000D-03
  0.280800D+03 -0.454000D-02
  0.792700D+02 -0.181330D-01
  0.255900D+02 -0.557600D-01
  0.899700D+01 -0.126895D+00
  0.331900D+01 -0.170352D+00
  0.905900D+00  0.140382D+00
  0.364300D+00  0.598684D+00
  0.128500D+00  0.395389D+00
   s     1 1.00
  0.905900D+00  0.100000D+01
   s     1 1.00
  0.364300D+00  0.100000D+01
   p     5 1.00
  0.187100D+02  0.140310D-01
  0.413300D+01  0.868660D-01
  0.120000D+01  0.290216D+00
  0.382700D+00  0.501008D+00
  0.120900D+00  0.343406D+00
   p     1 1.00
  0.382700D+00  0.100000D+01
   p     1 1.00
  0.120900D+00  0.100000D+01
   d     1 1.00
  0.109700D+01  0.100000D+01
   d     1 1.00
  0.318000D+00  0.100000D+01
   f     1 1.00
  0.761000D+00  0.100000D+01
  
  7  0
   s    10 1.00
  0.823600D+04  0.531000D-03
  0.123500D+04  0.410800D-02
  0.280800D+03  0.210870D-01
  0.792700D+02  0.818530D-01
  0.255900D+02  0.234817D+00
  0.899700D+01  0.434401D+00
  0.331900D+01  0.346129D+00
  0.905900D+00  0.393780D-01
  0.364300D+00 -0.898300D-02
  0.128500D+00  0.238500D-02
   s    10 1.00
  0.823600D+04 -0.113000D-03
  0.123500D+04 -0.878000D-03
  0.280800D+03 -0.454000D-02
  0.792700D+02 -0.181330D-01
  0.255900D+02 -0.557600D-01
  0.899700D+01 -0.126895D+00
  0.331900D+01 -0.170352D+00
  0.905900D+00  0.140382D+00
  0.364300D+00  0.598684D+00
  0.128500D+00  0.395389D+00
   s     1 1.00
  0.905900D+00  0.100000D+01
   s     1 1.00
  0.364300D+00  0.100000D+01
   p     5 1.00
  0.187100D+02  0.140310D-01
  0.413300D+01  0.868660D-01
  0.120000D+01  0.290216D+00
  0.382700D+00  0.501008D+00
  0.120900D+00  0.343406D+00
   p     1 1.00
  0.382700D+00  0.100000D+01
   p     1 1.00
  0.120900D+00  0.100000D+01
   d     1 1.00
  0.109700D+01  0.100000D+01
   d     1 1.00
  0.318000D+00  0.100000D+01
   f     1 1.00
  0.761000D+00  0.100000D+01
  
  8  0
   s     4 1.00
  0.130100D+02  0.196850D-01
  0.196200D+01  0.137977D+00
  0.444600D+00  0.478148D+00
  0.122000D+00  0.501240D+00
   s     1 1.00
  0.122000D+00  0.100000D+01
   p     1 1.00
  0.727000D+00  0.100000D+01
  
  9  0
   s     4 1.00
  0.130100D+02  0.196850D-01
  0.196200D+01  0.137977D+00
  0.444600D+00  0.478148D+00
  0.122000D+00  0.501240D+00
   s     1 1.00
  0.122000D+00  0.100000D+01
   p     1 1.00
  0.727000D+00  0.100000D+01
  
 10  0
   s     4 1.00
  0.130100D+02  0.196850D-01
  0.196200D+01  0.137977D+00
  0.444600D+00  0.478148D+00
  0.122000D+00  0.501240D+00
   s     1 1.00
  0.122000D+00  0.100000D+01
   p     1 1.00
  0.727000D+00  0.100000D+01
  
 11  0
   s     4 1.00
  0.130100D+02  0.196850D-01
  0.196200D+01  0.137977D+00
  0.444600D+00  0.478148D+00
  0.122000D+00  0.501240D+00
   s     1 1.00
  0.122000D+00  0.100000D+01
   p     1 1.00
  0.727000D+00  0.100000D+01
  
 12  0
   s     4 1.00
  0.130100D+02  0.196850D-01
  0.196200D+01  0.137977D+00
  0.444600D+00  0.478148D+00
  0.122000D+00  0.501240D+00
   s     1 1.00
  0.122000D+00  0.100000D+01
   p     1 1.00
  0.727000D+00  0.100000D+01
  
 13  0
   s     4 1.00
  0.130100D+02  0.196850D-01
  0.196200D+01  0.137977D+00
  0.444600D+00  0.478148D+00
  0.122000D+00  0.501240D+00
   s     1 1.00
  0.122000D+00  0.100000D+01
   p     1 1.00
  0.727000D+00  0.100000D+01
  
 14  0
   s     4 1.00
  0.130100D+02  0.196850D-01
  0.196200D+01  0.137977D+00
  0.444600D+00  0.478148D+00
  0.122000D+00  0.501240D+00
   s     1 1.00
  0.122000D+00  0.100000D+01
   p     1 1.00
  0.727000D+00  0.100000D+01
  
[MO]
 Sym= __1_a__
 Ene=  0.000000000000000E+000
 Spin= Alpha
 Occup=    2.00000000000000     
                     1  4.223162547289600E-005
                     2  0.998063570010612     
                     3  9.215904851771810E-003
                     4  2.064683240783080E-003
                     5  1.551731980506220E-003
                     6  9.957141805871851E-007
                     7  8.200497788985741E-008
                     8  4.473747133361860E-003
                     9 -2.939165136270980E-008
                    10  8.349247803968849E-009
                    11 -1.251802617649670E-004
                    12 -2.635704729384080E-008
                    13 -3.459794715588630E-008
                    14 -1.101540754254740E-004
                    15  2.643964381495851E-004
                    16  1.255289301552130E-007
                    17 -1.911127476204330E-010
                    18 -1.089303453289100E-004
                    19  3.594738171918430E-005
                    20  1.584307403406670E-004
                    21 -5.579136361597120E-008
                    22  3.576021263851950E-008
                    23  5.365324633173020E-004
                    24 -1.992426416559940E-004
                    25 -1.889472302878940E-004
                    26  7.321422041744881E-008
                    27  2.115933977273899E-008
                    28  8.705247810438340E-005
                    29 -2.123884093220820E-005
                    30 -2.404050931344509E-008
                    31 -4.850781135707865E-009
                    32 -3.591766364189670E-004
                    33  2.718482976491120E-003
                    34  1.461852429360590E-004
                    35 -2.643311606022010E-004
                    36 -1.574706211455850E-006
                    37 -1.288834837365820E-007
                    38 -7.065291592037560E-003
                    39  8.380956672448110E-008
                    40 -4.286375065054680E-008
                    41  3.600001802276470E-004
                    42  9.751824040016859E-007
                    43  1.301583218558150E-007
                    44  4.396160547652080E-003
                    45  3.483867879790368E-004
                    46  1.040777731400690E-007
                    47  2.650381457994850E-008
                    48  1.358557874001858E-004
                    49 -6.194225732678720E-006
                    50  7.742253386796202E-005
                    51  1.246355507149350E-007
                    52 -1.603798782323800E-007
                    53 -4.291431050726560E-004
                    54  5.127526051424730E-005
                    55 -1.099519758213244E-004
                    56  3.371955361334062E-008
                    57  9.258560796141806E-009
                    58  7.601475471736000E-005
                    59 -1.003978468413070E-005
                    60 -2.089611854362566E-008
                    61 -4.511116004610008E-009
                    62 -2.106294182438240E-004
                    63 -1.676182191237970E-003
                    64  5.595678184360550E-005
                    65  5.723131770667810E-004
                    66 -1.190267117098050E-005
                    67 -8.402825663440150E-004
                    68  1.013478970506820E-003
                    69  2.535918444636490E-005
                    70 -2.776765136083090E-005
                    71  6.011218795586010E-004
                    72  1.361016810860550E-005
                    73 -5.791079281457650E-004
                    74 -1.407174786285440E-004
                    75  9.190763907617185E-005
                    76  1.423774786031270E-006
                    77 -8.822427633185269E-006
                    78  4.099892600141120E-005
                    79 -2.312153295026750E-007
                    80 -1.727696343629912E-005
                    81 -1.841205328444150E-005
                    82  1.996492023325070E-004
                    83 -2.755037721277940E-005
                    84  1.498860136987940E-005
                    85 -9.265453092285201E-005
                    86  1.814365156767789E-006
                    87 -2.830245111922785E-005
                    88  2.030066297318840E-005
                    89 -3.632401583528640E-006
                    90  9.130667015073520E-007
                    91  1.341647292108230E-005
                    92 -2.105930929965500E-004
                    93 -1.676036006182190E-003
                    94  5.612291056546050E-005
                    95  5.717635628295000E-004
                    96  1.235175845627490E-005
                    97  8.403440280215730E-004
                    98  1.013547215775170E-003
                    99 -2.508968425877860E-005
                   100  2.765197322674290E-005
                   101  6.004969419843390E-004
                   102 -1.366237986021870E-005
                   103  5.785243669308440E-004
                   104 -1.405804700175220E-004
                   105  9.187523826728879E-005
                   106 -1.371094811115000E-006
                   107  8.847821692507410E-006
                   108  4.099997954631900E-005
                   109 -2.273673339740860E-007
                   110 -1.772016718447743E-005
                   111  1.841232844522210E-005
                   112 -1.997650963383920E-004
                   113 -2.762379071606820E-005
                   114  1.489998611598980E-005
                   115 -9.258601958512607E-005
                   116 -1.727708310643623E-006
                   117  2.831761530076315E-005
                   118  2.029338026937520E-005
                   119 -3.605657242279100E-006
                   120 -9.245843296872978E-007
                   121 -1.341664577663253E-005
                   122 -1.484483162689210E-004
                   123  2.669517201740430E-006
                   124  1.099560249217840E-004
                   125  1.320023211575270E-004
                   126 -1.380948718917710E-005
                   127  4.126265647832830E-005
                   128 -7.950539143338720E-004
                   129  1.117266147839570E-006
                   130  2.083171352906190E-005
                   131  3.458681225112280E-004
                   132  9.136849918514891E-006
                   133 -1.634228725976490E-004
                   134  7.038288876399940E-004
                   135 -1.689949209626006E-005
                   136  1.022731871649210E-006
                   137  1.921465579399760E-006
                   138  1.323902969762096E-006
                   139  7.833360960839340E-007
                   140 -1.871841104406789E-004
                   141 -9.597366329859030E-006
                   142  1.658015515679270E-004
                   143  1.361539026723898E-005
                   144 -4.613130915764650E-006
                   145 -3.872542006821831E-005
                   146  3.598110459672447E-007
                   147  1.101401288808380E-006
                   148 -9.479915279651959E-006
                   149 -7.452394943578060E-007
                   150 -3.838447040862886E-007
                   151 -3.535451475813551E-006
                   152 -1.489252094315270E-004
                   153  9.854233600239600E-007
                   154  1.094782020496360E-004
                   155  1.350267264338170E-004
                   156  1.344998006823910E-005
                   157 -4.124040865005570E-005
                   158 -7.950265737026220E-004
                   159 -9.486105193445750E-007
                   160 -2.116684958771500E-005
                   161  3.455059387643930E-004
                   162 -8.834372940932590E-006
                   163  1.640055655020630E-004
                   164  7.039932780657220E-004
                   165 -1.684426982228255E-005
                   166 -1.036922417517260E-006
                   167 -1.930444346581420E-006
                   168  1.272026578541166E-006
                   169  7.804774374994790E-007
                   170 -1.870420841062551E-004
                   171  9.447116606187630E-006
                   172 -1.660685283083130E-004
                   173  1.358363584852260E-005
                   174 -4.685718570485460E-006
                   175 -3.863869979532896E-005
                   176 -3.094500293980317E-007
                   177 -1.089771728276392E-006
                   178 -9.530886418492320E-006
                   179 -7.492637428911180E-007
                   180  3.888385521753233E-007
                   181  3.543702632859805E-006
                   182 -1.229105431102760E-004
                   183 -3.298543209103460E-004
                   184  3.195274419092780E-005
                   185  1.530346534849020E-004
                   186 -1.393652516079030E-008
                   187  8.499877564867260E-008
                   188 -4.146275951106490E-005
                   189  1.503729207316350E-008
                   190 -4.269085162798780E-007
                   191  1.780083580029860E-005
                   192  1.242425295245670E-008
                   193 -3.605832597915160E-008
                   194  4.722821317427150E-005
                   195  1.905984875851263E-005
                   196  4.810888739747190E-009
                   197  2.443215727540510E-008
                   198  8.951642822981320E-006
                   199  3.579723089085170E-007
                   200  5.817614127367645E-005
                   201  8.943473462204791E-009
                   202  2.125147584646580E-007
                   203  4.836766855434220E-005
                   204 -3.577391486183890E-006
                   205 -1.167287856588345E-005
                   206  5.460019532196071E-009
                   207 -7.773087838525341E-009
                   208  3.236216145502000E-006
                   209  9.595662239545869E-007
                   210  4.108672400194955E-010
                   211  2.731847713917153E-008
                   212  3.850764537509540E-003
                   213 -2.321786713683300E-003
                   214  1.043300640062180E-004
                   215  4.556549665710640E-004
                   216  3.774988739446960E-004
                   217  3.850743358763100E-003
                   218 -2.321777155649170E-003
                   219 -1.041624431841830E-004
                   220 -4.556378471504980E-004
                   221  3.775677517053220E-004
                   222 -6.619488848997810E-004
                   223 -1.342592618201830E-004
                   224  8.779741184718930E-007
                   225 -1.797839292274000E-005
                   226 -4.463796365702310E-005
                   227 -6.620182454260630E-004
                   228 -1.338859037581920E-004
                   229 -8.979927568571600E-007
                   230  1.795833818332640E-005
                   231 -4.466499149073850E-005
                   232 -2.330650003169190E-004
                   233 -4.026385882714150E-004
                   234 -1.131388974717640E-006
                   235 -5.943290526092210E-006
                   236  5.609613320234020E-006
                   237 -2.331044074896410E-004
                   238 -4.028003656493350E-004
                   239  1.132500814844030E-006
                   240  5.989870139015030E-006
                   241  5.655736345780380E-006
                   242  6.877128556258220E-005
                   243 -1.254525055278930E-004
                   244  3.058524557597670E-009
                   245 -2.062577510729500E-008
                   246  1.452133429627410E-005
 Sym= __2_a__
 Ene=  0.000000000000000E+000
 Spin= Alpha
 Occup=    2.00000000000000     
                     1 -4.500285644111540E-005
                     2 -2.095497865316850E-004
                     3  2.278955403504780E-003
                     4  9.997714504140030E-005
                     5  1.264154430841510E-003
                     6  6.605098266681930E-007
                     7  6.750023745879579E-008
                     8  2.972731701494300E-003
                     9 -1.161502944225740E-008
                    10 -5.422067144528530E-009
                    11 -5.290949393797120E-005
                    12 -1.138827110985300E-007
                    13 -4.454247584209300E-009
                    14 -5.199291352865530E-004
                    15  4.297797315346928E-005
                    16  2.861441924366360E-009
                    17  6.199831663521360E-009
                    18  6.206899494735100E-005
                    19 -1.313810439347560E-005
                    20 -2.758282852677050E-004
                    21 -3.722338208105980E-008
                    22 -3.446640347749500E-008
                    23 -3.142320603180720E-004
                    24  7.534825633430240E-005
                    25  1.817666406165611E-004
                    26 -9.608679100658383E-008
                    27 -3.242777136241414E-009
                    28 -4.336856720687780E-006
                    29 -1.596012773595680E-005
                    30  9.703531645894539E-010
                    31 -3.830733679226605E-009
                    32   1.00105900697309     
                    33  9.265587668821041E-003
                    34  2.629674684468380E-003
                    35 -7.764787547242160E-003
                    36 -9.141772845732670E-007
                    37 -9.017338766998340E-008
                    38 -4.111831807839260E-003
                    39  2.270826149586610E-007
                    40  2.086468681528930E-008
                    41  1.022237469408030E-003
                    42  9.840239080891220E-007
                    43  2.501670748760900E-008
                    44  4.419244063065200E-003
                    45  4.689281292577887E-004
                    46  2.756308433195170E-007
                    47  3.356837617695190E-009
                    48 -4.284846111742100E-004
                    49  9.197067261097450E-006
                    50  5.639557614938971E-004
                    51  1.242524000072630E-008
                    52  5.069506995756310E-008
                    53  9.260196742982840E-004
                    54 -1.566482480782720E-005
                    55  3.830226633314278E-004
                    56 -1.374075080474253E-007
                    57 -3.006059474312879E-008
                    58 -2.045003312068280E-004
                    59  6.761296357545780E-006
                    60  5.592210023599579E-008
                    61 -1.784013098006995E-009
                    62  7.333898514353620E-003
                    63 -2.048265732001950E-003
                    64 -2.751399845073290E-004
                    65  3.029030157024600E-003
                    66  4.571516462006360E-006
                    67  9.932663591392780E-005
                    68 -1.351469118273750E-005
                    69 -1.933025199586030E-005
                    70  5.951258520914470E-004
                    71  2.625849683584070E-005
                    72  3.296897377922170E-005
                    73 -2.082771909985110E-003
                    74  9.560070944266480E-005
                    75 -1.530031994449609E-005
                    76  5.731503388763670E-007
                    77  1.417672983841280E-005
                    78  2.911718145948400E-005
                    79  1.100515780638010E-006
                    80  7.618113598081979E-004
                    81  1.493956747708900E-005
                    82 -4.215933466725920E-004
                    83 -1.264967654759720E-005
                    84 -9.573190524092189E-006
                    85  7.244332697221545E-005
                    86 -3.500339415751448E-007
                    87  4.502935382477154E-005
                    88 -1.265441744793538E-004
                    89  1.035469999754400E-006
                    90  8.591726064783492E-007
                    91  5.003097402357149E-005
                    92  7.333872164415600E-003
                    93 -2.048349431079040E-003
                    94 -2.751801710805330E-004
                    95  3.029223726748940E-003
                    96 -4.576977620778040E-006
                    97 -9.932760535629921E-005
                    98 -1.352997161096330E-005
                    99  1.934110755013330E-005
                   100 -5.951267260261670E-004
                   101  2.639583451688590E-005
                   102 -3.292935906047620E-005
                   103  2.082893340403020E-003
                   104  9.537576616953010E-005
                   105 -1.528539233342388E-005
                   106 -5.979798153574220E-007
                   107 -1.418295306827480E-005
                   108  2.911594553805900E-005
                   109  1.094207136596790E-006
                   110  7.618468728810692E-004
                   111 -1.434812827133760E-005
                   112  4.216984499255270E-004
                   113 -1.265642483585262E-005
                   114 -9.386007783064371E-006
                   115  7.242679056715609E-005
                   116  3.597707324485940E-007
                   117 -4.504282544062248E-005
                   118 -1.265365584343382E-004
                   119  1.031141848390040E-006
                   120 -7.900607885215327E-007
                   121 -5.003516757158183E-005
                   122 -2.309452726849750E-004
                   123 -7.530164677432920E-004
                   124  2.244484724926470E-004
                   125 -1.125835868305210E-004
                   126 -2.451300917137290E-006
                   127 -1.905487797698100E-005
                   128 -2.532817704735250E-004
                   129  4.500694173269020E-006
                   130 -7.481044701186450E-006
                   131  5.369621831576690E-004
                   132 -6.635731627365720E-006
                   133  3.249378508421590E-004
                   134  7.480026338245380E-004
                   135 -1.427967765361024E-005
                   136 -1.373265382726460E-006
                   137  5.151843270628870E-005
                   138  1.398891972469908E-005
                   139  7.692824023682530E-007
                   140 -2.906412005880304E-004
                   141  3.051338370864930E-006
                   142 -2.194714264292890E-004
                   143 -1.384461027528166E-005
                   144 -2.863356439074680E-006
                   145  8.084492774740177E-007
                   146  1.207156288722003E-006
                   147 -4.050609660031214E-005
                   148 -3.945395340476000E-005
                   149 -1.267882035024630E-006
                   150  5.166733143205762E-007
                   151 -5.692778574167182E-006
                   152 -2.306652797552010E-004
                   153 -7.520875706907860E-004
                   154  2.245028744410430E-004
                   155 -1.135431029852030E-004
                   156  2.338741922004490E-006
                   157  1.903629705924700E-005
                   158 -2.532869401340990E-004
                   159 -4.262966127840600E-006
                   160  7.539364260793060E-006