===========================================================
===                   runc                              ===
===           version 7.0.2 , April 2021              ===
===          requires COLUMBUS version Col_7.0.2        ===
===                                                     ===
===   written by: Thomas Mueller                        ===
===   gradient ext. by: Michal Dallos                   ===
===               University of Vienna                  ===
===   maintained by: Felix Plasser                      ===
===               Loughborough University               ===
===========================================================


coremem. (seq.): 200000 MB,  coremem. (par.): 19000 MB
Vdisk size: 0 DP
Reading job control file control.run ... 
 ****** This is an 2c-QDPT MRCISD calculation ****** 
 model space size=4:0:4
SMOLCAS=/home-4/yshen57@jhu.edu/Software/Chemistry/Columbus-7.0.2_OpenMolcas-18.09-col/OpenMolcas/build
Found serial Molcas Installation at /home-4/yshen57@jhu.edu/Software/Chemistry/Columbus-7.0.2_OpenMolcas-18.09-col/OpenMolcas/build
  done 
INFO: keywords nadcoupl and seward are supported for DCI mode only!
seward specified, using also alaska
Creating various directories ... 
 done 
SMOLCAS=/home-4/yshen57@jhu.edu/Software/Chemistry/Columbus-7.0.2_OpenMolcas-18.09-col/OpenMolcas/build
PMOLCAS=
Checking for illegal keywords and keyword combinations ... done 

 Nonadiabatic coupling term calculation type: DCI+DCSF
  States involved in calcualtion:
   DRT1,state1;  DRT1,state2
   DRT1,state1;  DRT1,state3
   DRT1,state1;  DRT1,state4
   DRT1,state2;  DRT1,state3
   DRT1,state2;  DRT1,state4
   DRT1,state3;  DRT1,state4
   DRT2,state1;  DRT2,state2
   DRT2,state1;  DRT2,state3
   DRT2,state1;  DRT2,state4
   DRT2,state2;  DRT2,state3
   DRT2,state2;  DRT2,state4
   DRT2,state3;  DRT2,state4

Additional gradients computed:
   DRT1,state1
   DRT1,state2
   DRT1,state3
   DRT1,state4
   DRT2,state1
   DRT2,state2
   DRT2,state3
   DRT2,state4

Checking for complete set of input files ... 
mcscf calculation without preceeding scf calculation 
will use 
 /scratch/users/yshen57@jhu.edu/Molcas/mex-B2-A2/mrci/mocoef as starting MOs 
Performing coupled non-rel. SO-CI calculation, nrroots: 4 0 4
starting cidrt.x   -m 200000 < cidrtin > temp at Thu May 26 03:24:53 EDT 2022

 -------------------- cidrt.x ------------------------
 spatial symmetry:  
 total number of configurations          0
 number of reference configurations     0
 --------------------------------------------------- 
 Preparing SO cidrtin files for 1 symmetries
cat ../cidrtin | sed -e 's/^.*input the molecular spatial symmetry/1 \/ molsym/' > cidrtin.so_A 
calling cidrt.x -m 200000 < cidrtin.so_A > cidrtls.soci_A ...
Checking the DRTs for consistency ...
calling reindex.x -i 1 -m 200000  ...
done

 ++++++++++++++++++ input file generation +++++++++++++ 
 runc start: Thu May 26 03:25:14 EDT 2022
 
  runc start: Thu May 26 03:25:14 EDT 2022
 
 starting unik.gets.x > unikls at Thu May 26 03:25:14 EDT 2022

 -------------------- unik.gets.x ------------------------
 --------------------------------------------------- 
 ++++++++++++++++++++ ao integral calculation ++++++++++++++++
starting pymolcas molcas.input.seward > molcas.output.seward  at Thu May 26 03:25:14 EDT 2022

Generating link ln -s ./molcas.OrdInt ORDINT 
 -------------------- seward ------------------------
      Basis set label: N.ANILINE.........
      Basis set label: C.ANILINE.........
      Basis set label: H.ANILINE.........
  Nuclear Coordinates in                   atomic units                                   Angstrom 
     Center  Label                x              y              z                     x              y              z
        1      N1               0.078922      -4.448939       0.000000              0.041764      -2.354277       0.000000
        2      C2               0.109340      -1.951509       0.000000              0.057860      -1.032694       0.000000
        3      C3              -2.225003      -0.565397       0.000000             -1.177421      -0.299195       0.000000
        4      C4               2.319876      -0.374118       0.000000              1.227625      -0.197975       0.000000
        5      C5              -2.286833       2.127367       0.000000             -1.210140       1.125754       0.000000
        6      C6               2.163020       2.325402       0.000000              1.144621       1.230550       0.000000
        7      C7              -0.113481       3.587024       0.000000             -0.060052       1.898171       0.000000
        8      H8              -2.256857      -5.769874       0.000000             -1.194277      -3.053286       0.000000
        9      H9               1.796261      -5.343297       0.000000              0.950540      -2.827551       0.000000
       10      H10             -3.959808      -1.599871       0.000000             -2.095440      -0.846615       0.000000
       11      H11              4.152006      -1.235991       0.000000              2.197147      -0.654058       0.000000
       12      H12             -4.108153       3.022785       0.000000             -2.173941       1.599589       0.000000
       13      H13              3.903547       3.368594       0.000000              2.065668       1.782583       0.000000
       14      H14             -0.202162       5.607878       0.000000             -0.106979       2.967561       0.000000
 
            Nuclear Potential Energy            268.63852128 au
 --------------------------------------------------- 
  >>>>>>>>>>>>> info: preparing drt no 1 out of 1 <<<<<<
starting mcdrt.x -m 200000 < mcdrtin > mcdrtls at Thu May 26 03:29:24 EDT 2022

 -------------------- mcdrt.x ------------------------
  Spin multiplicity: singlet 
  Spatial symmetry (#): 1
  Number of Configurations:       1275 
  --------------------------------------------------- 
 starting mcuft.x at Thu May 26 03:29:24 EDT 2022

 -------------------- mcuft.x ------------------------
 --------------------------------------------------- 
 ++++++++++++++++++++ MCSCF calculation +++++++++++++++
info: taking mocoef file from /scratch/users/yshen57@jhu.edu/Molcas/mex-B2-A2/mrci/mocoef
adding flag 30 to mcscfin
Writing mcdenin files for mcscf.x for 1 DRTs
adding flag 26 to mcscfin
starting mcscf.x -m 200000 at Thu May 26 03:29:24 EDT 2022

 -------------------- mcscf.x ------------------------
 Individual total energies for all states: 
    DRT #1 state # 1 wt 0.250 total energy=     -285.828308247, rel. (eV)=   0.000000
    DRT #1 state # 2 wt 0.250 total energy=     -285.673119549, rel. (eV)=   4.222901
    DRT #1 state # 3 wt 0.250 total energy=     -285.592187406, rel. (eV)=   6.425178
    DRT #1 state # 4 wt 0.250 total energy=     -285.587937021, rel. (eV)=   6.540837
  --------------------------------------------------- 
 starting mcpc.x -m 200000 < mcpcin > mcpcls at Thu May 26 05:57:55 EDT 2022

 -------------------- mcpc.x ------------------------
 --------------------------------------------------- 
 starting mcpc.x -m 200000 < mcpcin > mcpcls at Thu May 26 05:57:55 EDT 2022

 -------------------- mcpc.x ------------------------
 --------------------------------------------------- 
 starting mcpc.x -m 200000 < mcpcin > mcpcls at Thu May 26 05:57:55 EDT 2022

 -------------------- mcpc.x ------------------------
 --------------------------------------------------- 
 starting mcpc.x -m 200000 < mcpcin > mcpcls at Thu May 26 05:57:55 EDT 2022

 -------------------- mcpc.x ------------------------
 --------------------------------------------------- 
 
========= state properties for state-averaged MCSCF =========
mcscf.drt1.st01.sp
starting exptvl.x -m 200000   at Thu May 26 05:57:55 EDT 2022

 -------------------- exptvl.x ------------------------
  === dipole moment === 
                     X               Y               Z   
   orign x       0.00000000      0.00000000      0.00000000
   orign y       0.00000000      0.00000000      0.00000000
   orign z       0.00000000      0.00000000      0.00000000
   nuclear      -0.32120369     -2.19973212      0.00000000
   electronic    0.09992244      0.88271681      0.00000000
   total        -0.22128125     -1.31701531      0.00000000
   total Dipole moment =   3.39444343    Debye
 --------------------------------------------------- 
 mcscf.drt1.st02.sp
starting exptvl.x -m 200000   at Thu May 26 05:57:56 EDT 2022

 -------------------- exptvl.x ------------------------
  === dipole moment === 
                     X               Y               Z   
   orign x       0.00000000      0.00000000      0.00000000
   orign y       0.00000000      0.00000000      0.00000000
   orign z       0.00000000      0.00000000      0.00000000
   nuclear      -0.32120369     -2.19973212      0.00000000
   electronic    1.38522217      4.20793683     -0.00000000
   total         1.06401848      2.00820471     -0.00000000
   total Dipole moment =   5.77655254    Debye
 --------------------------------------------------- 
 mcscf.drt1.st03.sp
starting exptvl.x -m 200000   at Thu May 26 05:57:56 EDT 2022

 -------------------- exptvl.x ------------------------
  === dipole moment === 
                     X               Y               Z   
   orign x       0.00000000      0.00000000      0.00000000
   orign y       0.00000000      0.00000000      0.00000000
   orign z       0.00000000      0.00000000      0.00000000
   nuclear      -0.32120369     -2.19973212      0.00000000
   electronic    1.38069293      5.33981675      0.00000000
   total         1.05948924      3.14008463      0.00000000
   total Dipole moment =   8.42337648    Debye
 --------------------------------------------------- 
 mcscf.drt1.st04.sp
starting exptvl.x -m 200000   at Thu May 26 05:57:56 EDT 2022

 -------------------- exptvl.x ------------------------
  === dipole moment === 
                     X               Y               Z   
   orign x       0.00000000      0.00000000      0.00000000
   orign y       0.00000000      0.00000000      0.00000000
   orign z       0.00000000      0.00000000      0.00000000
   nuclear      -0.32120369     -2.19973212      0.00000000
   electronic    0.13529447      0.52047147     -0.00000000
   total        -0.18590922     -1.67926065     -0.00000000
   total Dipole moment =   4.29433633    Debye
 --------------------------------------------------- 
  using the MCSCF MOs ... 
starting cidrt.x  -m 200000 < cidrtin.1 > cidrtls at Thu May 26 05:57:56 EDT 2022

 -------------------- cidrt.x ------------------------
 total number of orbitals            :   246
 number of frozen core orbitals      :    18
 number of frozen virtual orbitals   :     0
 number of internal orbitals         :    14
 number of external orbitals         :   214
 spatial symmetry:   a  
 
 total number of configurations  158587185
 number of reference configurations  1275
 --------------------------------------------------- 
 starting cidrt.x  -m 200000 < cidrtin.2 > cidrtls at Thu May 26 05:57:58 EDT 2022

 -------------------- cidrt.x ------------------------
 total number of orbitals            :   246
 number of frozen core orbitals      :    18
 number of frozen virtual orbitals   :     0
 number of internal orbitals         :    14
 number of external orbitals         :   214
 spatial symmetry:   a  
 
 total number of configurations  282461366
 number of reference configurations  1666
 --------------------------------------------------- 
 starting tran.x -m 200000  at Thu May 26 05:58:02 EDT 2022

 -------------------- tran.x ------------------------
 --------------------------------------------------- 
  Starting ciudgav with DRT # 1 out of 2 

 *** starting pciudg section *** 
nproc: 48 machinefile:  
assuming machinefile syntax: one host name per line optionally repeated
 section2, MPI_STARTUP:
 /software/apps/mpi/openmpi/3.1/intel/18.0/bin/mpirun -np 48  /home-4/yshen57@jhu.edu/Software/Chemistry/Columbus-7.0.2_OpenMolcas-18.09-col/Columbus/pciudg.x -m 19000 
 -------------------- pciudg.x ------------------------
 type of calculation:          mr-sdci
 number of configurations:     158587185
 total mr-sdci energy             -286.0228058905 
 last mr-sdci energy change           0.0000000000 
 residual                             0.0000084118 
  type of calculation:          mr-sdci
 number of configurations:     158587185
 total mr-sdci energy             -285.9212299683 
 last mr-sdci energy change           0.0000000000 
 residual                             0.0000068356 
  type of calculation:          mr-sdci
 number of configurations:     158587185
 total mr-sdci energy             -285.8452907903 
 last mr-sdci energy change           0.0000000002 
 residual                             0.0000089824 
  type of calculation:          mr-sdci
 number of configurations:     158587185
 total mr-sdci energy             -285.8452887611 
 last mr-sdci energy change           0.0000000000 
 residual                             0.0000068458 
  --------------------------------------------------- 
 keyinfile returned docipci=0:
starting cipc.x -m 200000 < cipcin > cipcls at Thu May 26 21:02:25 EDT 2022

 -------------------- cipc.x ------------------------
 --------------------------------------------------- 
  Starting ciudgav with DRT # 2 out of 2 

 *** starting pciudg section *** 
nproc: 48 machinefile:  
assuming machinefile syntax: one host name per line optionally repeated
 section2, MPI_STARTUP:
 /software/apps/mpi/openmpi/3.1/intel/18.0/bin/mpirun -np 48  /home-4/yshen57@jhu.edu/Software/Chemistry/Columbus-7.0.2_OpenMolcas-18.09-col/Columbus/pciudg.x -m 19000 
 -------------------- pciudg.x ------------------------
 type of calculation:          mr-sdci
 number of configurations:     282461366
 total mr-sdci energy             -285.9320882258 
 last mr-sdci energy change           0.0000000000 
 residual                             0.0000070973 
  type of calculation:          mr-sdci
 number of configurations:     282461366
 total mr-sdci energy             -285.8698118445 
 last mr-sdci energy change           0.0000000000 
 residual                             0.0000075411 
  type of calculation:          mr-sdci
 number of configurations:     282461366
 total mr-sdci energy             -285.8620446193 
 last mr-sdci energy change           0.0000000000 
 residual                             0.0000089912 
  type of calculation:          mr-sdci
 number of configurations:     282461366
 total mr-sdci energy             -285.8466211183 
 last mr-sdci energy change           0.0000000000 
 residual                             0.0000079859 
  --------------------------------------------------- 
 keyinfile returned docipci=0:
starting cipc.x -m 200000 < cipcin > cipcls at Sat May 28 07:55:30 EDT 2022

 -------------------- cipc.x ------------------------
 --------------------------------------------------- 
 Reindex call
run_socinr: imult=1 irrep=1 
opening file =ciudgls.drt1.sp
opening file =ciudgls.drt1.sp
opening file =ciudgls.drt1.sp
opening file =ciudgls.drt1.sp
run_socinr: imult=3 irrep=1 
opening file =ciudgls.drt2.sp
opening file =ciudgls.drt2.sp
opening file =ciudgls.drt2.sp
opening file =ciudgls.drt2.sp
 copying /scratch/users/yshen57@jhu.edu/Molcas/mex-B2-A2/mrci/cidrtfl.so__A --> cidrtfl.so__A 
 copying /scratch/users/yshen57@jhu.edu/Molcas/mex-B2-A2/mrci/cidrtfl.so__A --> cidrtfl.so__A 
starting reindex.x -m 200000 > reindexls at Sat May 28 07:55:50 EDT 2022

 -------------------- reindex.x ------------------------
 --------------------------------------------------- 
 1      1        1           civfl_1_A             1      1    0+       1             1         civfl.so__A
1      1        2           civfl_1_A             1      1    0+       2    1005971284         civfl.so__A
1      1        3           civfl_1_A             1      1    0+       3    2011942567         civfl.so__A
1      1        4           civfl_1_A             1      1    0+       4    3017913850         civfl.so__A
3      1        1           civfl_3_A             1      3    0+       5    4023885133         civfl.so__A
3      1        1           civfl_3_A             1      3    1+       6    5029856416         civfl.so__A
3      1        1           civfl_3_A             1      3    1-       7    6035827699         civfl.so__A
3      1        2           civfl_3_A             1      3    0+       8    7041798982         civfl.so__A
3      1        2           civfl_3_A             1      3    1+       9    8047770265         civfl.so__A
3      1        2           civfl_3_A             1      3    1-      10    9053741548         civfl.so__A
3      1        3           civfl_3_A             1      3    0+      11   10059712831         civfl.so__A
3      1        3           civfl_3_A             1      3    1+      12   11065684114         civfl.so__A
3      1        3           civfl_3_A             1      3    1-      13   12071655397         civfl.so__A
3      1        4           civfl_3_A             1      3    0+      14   13077626680         civfl.so__A
3      1        4           civfl_3_A             1      3    1+      15   14083597963         civfl.so__A
3      1        4           civfl_3_A             1      3    1-      16   15089569246         civfl.so__A
 Executing ciudg.x  for gamma =A ...

 *** starting pciudg section *** 
nproc: 48 machinefile:  
assuming machinefile syntax: one host name per line optionally repeated
 section2, MPI_STARTUP:
 /software/apps/mpi/openmpi/3.1/intel/18.0/bin/mpirun -np 48  /home-4/yshen57@jhu.edu/Software/Chemistry/Columbus-7.0.2_OpenMolcas-18.09-col/Columbus/pciudg.x -m 19000 
 -------------------- pciudg.x ------------------------
 type of calculation:          mr-sdci
 number of configurations:     1005971283
 total mr-sdci energy             -286.0228059690 
 last mr-sdci energy change           0.0000000785 
 residual                            35.3520000000 
  type of calculation:          mr-sdci
 number of configurations:     1005971283
 total mr-sdci energy             -285.9320882594 
 last mr-sdci energy change           0.0108580000 
 residual                            35.2610000000 
  type of calculation:          mr-sdci
 number of configurations:     1005971283
 total mr-sdci energy             -285.9320882592 
 last mr-sdci energy change           0.0867970000 
 residual                            35.2610000000 
  type of calculation:          mr-sdci
 number of configurations:     1005971283
 total mr-sdci energy             -285.9320881476 
 last mr-sdci energy change           0.0867990000 
 residual                            35.2610000000 
  type of calculation:          mr-sdci
 number of configurations:     1005971283
 total mr-sdci energy             -285.9212300083 
 last mr-sdci energy change          -0.0108580000 
 residual                            35.2500000000 
  type of calculation:          mr-sdci
 number of configurations:     1005971283
 total mr-sdci energy             -285.8698118248 
 last mr-sdci energy change          -0.0622760000 
 residual                            35.1990000000 
  type of calculation:          mr-sdci
 number of configurations:     1005971283
 total mr-sdci energy             -285.8698118242 
 last mr-sdci energy change          -0.0622760000 
 residual                            35.1990000000 
  type of calculation:          mr-sdci
 number of configurations:     1005971283
 total mr-sdci energy             -285.8698118196 
 last mr-sdci energy change          -0.0000000249 
 residual                            35.1990000000 
  type of calculation:          mr-sdci
 number of configurations:     1005971283
 total mr-sdci energy             -285.8620446718 
 last mr-sdci energy change          -0.0077672000 
 residual                            35.1910000000 
  type of calculation:          mr-sdci
 number of configurations:     1005971283
 total mr-sdci energy             -285.8620446184 
 last mr-sdci energy change          -0.0077672000 
 residual                            35.1910000000 
  type of calculation:          mr-sdci
 number of configurations:     1005971283
 total mr-sdci energy             -285.8620446184 
 last mr-sdci energy change          -0.0000000009 
 residual                            35.1910000000 
  type of calculation:          mr-sdci
 number of configurations:     1005971283
 total mr-sdci energy             -285.8466211108 
 last mr-sdci energy change          -0.0154240000 
 residual                            35.1750000000 
  type of calculation:          mr-sdci
 number of configurations:     1005971283
 total mr-sdci energy             -285.8466211058 
 last mr-sdci energy change          -0.0154240000 
 residual                            35.1750000000 
  type of calculation:          mr-sdci
 number of configurations:     1005971283
 total mr-sdci energy             -285.8466211049 
 last mr-sdci energy change          -0.0000000134 
 residual                            35.1750000000 
  type of calculation:          mr-sdci
 number of configurations:     1005971283
 total mr-sdci energy             -285.8452907307 
 last mr-sdci energy change          -0.0013304000 
 residual                            35.1740000000 
  type of calculation:          mr-sdci
 number of configurations:     1005971283
 total mr-sdci energy             -285.8452887610 
 last mr-sdci energy change          -0.0013324000 
 residual                            35.1740000000 
  --------------------------------------------------- 
 ************* Results for Spin-Orbit CI gamma=A **************** 
Final spin-orbit CI state energies: 


-------------- HT matrix in AU ----------------  
-35.351517    
 0.000000    -35.249941    
 0.000000     0.000000    -35.174002    
 0.000000     0.000000     0.000000    -35.174000    
-0.000000    -0.000000     0.000000    -0.000000    -35.260799    
 0.000066    -0.000000     0.000000     0.000003     0.000000    -35.260799    
-0.000053     0.000000     0.000000     0.000002    -0.000000    -0.000000    -35.260799    
 0.000000     0.000000     0.000000     0.000000     0.000000    -0.000024    -0.000026    -35.198523    
 0.000000    -0.000027     0.000004    -0.000000     0.000024     0.000000    -0.000000     0.000000    -35.198523    
 0.000000     0.000024     0.000001    -0.000000     0.000026     0.000000     0.000000    -0.000000    -0.000000    -35.198523    
-0.000000    -0.000000     0.000000     0.000000     0.000000    -0.000007    -0.000003     0.000000     0.000000    -0.000000    -35.190756    
-0.000000    -0.000003    -0.000022     0.000000     0.000007     0.000000     0.000000    -0.000000     0.000000    -0.000000     0.000000    -35.190756    
 0.000000     0.000008     0.000021    -0.000000     0.000003    -0.000000     0.000000     0.000000     0.000000     0.000000     0.000000    -0.000000    -35.190756    
 0.000000    -0.000000    -0.000000    -0.000000     0.000000     0.000023     0.000024     0.000000    -0.000000    -0.000000     0.000000    -0.000000    -0.000000    -35.175332    
-0.000000     0.000023     0.000001    -0.000000    -0.000023     0.000000     0.000000     0.000000     0.000000     0.000000     0.000000     0.000000    -0.000000    -0.000000    -35.175332    
 0.000000    -0.000022     0.000002    -0.000000    -0.000024    -0.000000     0.000000     0.000000    -0.000000     0.000000     0.000000     0.000000     0.000000     0.000000    -0.000000    -35.175332    
-------------- HT matrix in eV ---------------- 
 -961.964   
    0.000    -959.200   
    0.000       0.000    -957.133   
    0.000       0.000       0.000    -957.133   
   -0.000      -0.000       0.000      -0.000    -959.495   
    0.002      -0.000       0.000       0.000       0.000    -959.495   
   -0.001       0.000       0.000       0.000      -0.000      -0.000    -959.495   
    0.000       0.000       0.000       0.000       0.000      -0.001      -0.001    -957.801   
    0.000      -0.001       0.000      -0.000       0.001       0.000      -0.000       0.000    -957.801   
    0.000       0.001       0.000      -0.000       0.001       0.000       0.000      -0.000      -0.000    -957.801   
   -0.000      -0.000       0.000       0.000       0.000      -0.000      -0.000       0.000       0.000      -0.000    -957.589   
   -0.000      -0.000      -0.001       0.000       0.000       0.000       0.000      -0.000       0.000      -0.000       0.000    -957.589   
    0.000       0.000       0.001      -0.000       0.000      -0.000       0.000       0.000       0.000       0.000       0.000      -0.000    -957.589   
    0.000      -0.000      -0.000      -0.000       0.000       0.001       0.001       0.000      -0.000      -0.000       0.000      -0.000      -0.000    -957.169   
   -0.000       0.001       0.000      -0.000      -0.001       0.000       0.000       0.000       0.000       0.000       0.000       0.000      -0.000      -0.000    -957.169   
    0.000      -0.001       0.000      -0.000      -0.001      -0.000       0.000       0.000      -0.000       0.000       0.000       0.000       0.000       0.000      -0.000    -957.169   
-------------- HT matrix in cm-1 ------------------- 
Eref = -35.35151705
     0.00   
     0.00    22293.38   
     0.00        0.00    38960.13   
     0.00        0.00        0.00    38960.57   
     0.00       -0.08        0.05        0.00    19910.26   
    14.39        0.00        0.00        0.59        0.00    19910.26   
   -11.65        0.00        0.00        0.48        0.00        0.00    19910.26   
     0.00        0.00        0.00        0.00        0.00       -5.30       -5.71    33578.37   
     0.00       -5.87        0.98        0.00        5.30        0.00        0.00        0.00    33578.37   
     0.00        5.30        0.17        0.00        5.71        0.00        0.00        0.00        0.00    33578.37   
    -0.00        0.00        0.00        0.00        0.00       -1.58       -0.63        0.00        0.00        0.00    35283.08   
     0.00       -0.67       -4.78        0.00        1.58        0.00        0.00        0.00        0.00       -0.01        0.00    35283.08   
     0.00        1.71        4.52        0.00        0.63        0.00        0.00        0.00        0.01        0.00        0.00        0.00    35283.08   
     0.00        0.00        0.00       -0.00        0.00        4.94        5.20        0.00        0.00        0.00        0.00        0.00        0.00    38668.15   
     0.00        5.08        0.19        0.00       -4.94        0.00        0.00        0.00        0.00        0.00        0.00        0.00       -0.01        0.00    38668.15   
     0.00       -4.79        0.54        0.00       -5.20        0.00        0.00        0.00        0.00        0.00        0.00        0.01        0.00        0.00        0.00    38668.15   


Spin-Orbit CI: perturbational estimate of Spin-Orbit CI energies and wavefunctions 
                SO   1         SO   2         SO   3         SO   4         SO   5         SO   6         SO   7         SO   8

   energy  -286.02280597  -285.93208826  -285.93208826  -285.93208815  -285.92123001  -285.86981182  -285.86981182  -285.86981182
 
   NR   1    -0.99999957     0.00000000     0.00002284     0.00092984    -0.00000000     0.00000000     0.00000004     0.00000000
   NR   2     0.00000000    -0.00003382     0.00000000     0.00000000    -0.99999965    -0.00001758     0.00000000    -0.00070057
   NR   3    -0.00000000     0.00000255    -0.00000000    -0.00000000    -0.00000002    -0.00014792    -0.00000000    -0.00010973
   NR   4    -0.00000000    -0.00000000    -0.00003913    -0.00000711    -0.00000000     0.00000000    -0.00000082     0.00000000
   NR   5    -0.00000000    -0.99999976     0.00000002    -0.00000000     0.00003381     0.00057024     0.00000000    -0.00000662
   NR   6     0.00072284     0.00000001     0.64821588     0.76145611     0.00000000     0.00000000    -0.00038795    -0.00000000
   NR   7    -0.00058534     0.00000001     0.76145629    -0.64821580    -0.00000000     0.00000000    -0.00041798    -0.00000000
   NR   8     0.00000008     0.00000000     0.00056975     0.00002446     0.00000000    -0.00000163     0.99999984     0.00000025
   NR   9     0.00000000     0.00038794    -0.00000000    -0.00000000    -0.00052003     0.68875444     0.00000094     0.72499439
   NR  10     0.00000000     0.00041800    -0.00000000    -0.00000000     0.00046976     0.72499447     0.00000135    -0.68875440
   NR  11    -0.00000008     0.00000000     0.00009817     0.00005173    -0.00000000     0.00000000    -0.00000052    -0.00000000
   NR  12    -0.00000000     0.00010303    -0.00000000     0.00000000    -0.00005133     0.00000306     0.00000000    -0.00000439
   NR  13     0.00000000     0.00004122    -0.00000000     0.00000000     0.00013165    -0.00000361    -0.00000000    -0.00000301
   NR  14     0.00000012    -0.00000000    -0.00038163    -0.00002081    -0.00000000    -0.00000000     0.00000080     0.00000000
   NR  15    -0.00000000    -0.00026321     0.00000000     0.00000000     0.00031040     0.00000043     0.00000000     0.00000083
   NR  16     0.00000000    -0.00027711     0.00000000     0.00000000    -0.00029228     0.00000072     0.00000000    -0.00000051

                SO   9         SO  10         SO  11         SO  12         SO  13         SO  14         SO  15         SO  16

   energy  -285.86204467  -285.86204462  -285.86204462  -285.84662111  -285.84662111  -285.84662110  -285.84529073  -285.84528876
 
   NR   1     0.00000000    -0.00000013     0.00000000    -0.00000000    -0.00000015    -0.00000000     0.00000000    -0.00000000
   NR   2     0.00012756     0.00000000     0.00006077    -0.00014870    -0.00000000     0.00039958     0.00000021     0.00000000
   NR   3    -0.00178909    -0.00000000    -0.00000430    -0.00195553    -0.00000000     0.00011971    -0.99999646     0.00000004
   NR   4     0.00000000    -0.00000018     0.00000000     0.00000000    -0.00001424    -0.00000000    -0.00000004    -1.00000000
   NR   5    -0.00004684     0.00000001     0.00010060    -0.00035762     0.00000000    -0.00013486    -0.00000187     0.00000000
   NR   6    -0.00000000    -0.00010303     0.00000001     0.00000000    -0.00026322    -0.00000000    -0.00000000    -0.00003078
   NR   7    -0.00000000    -0.00004122     0.00000000     0.00000000    -0.00027710    -0.00000000    -0.00000000    -0.00002519
   NR   8     0.00000000     0.00000046    -0.00000000    -0.00000000     0.00000059     0.00000000    -0.00000000    -0.00000084
   NR   9     0.00000218     0.00000000     0.00000413    -0.00000076     0.00000000    -0.00000050    -0.00018144     0.00000000
   NR  10     0.00000409    -0.00000000    -0.00000326    -0.00000055    -0.00000000     0.00000045    -0.00003167     0.00000000
   NR  11     0.00000002     0.99999999    -0.00006349     0.00000000     0.00000018    -0.00000000    -0.00000000    -0.00000019
   NR  12    -0.72864249     0.00004350     0.68489300     0.00000477     0.00000000    -0.00000122     0.00130066    -0.00000000
   NR  13     0.68489189     0.00004625     0.72864365    -0.00000366     0.00000000    -0.00000181    -0.00122846     0.00000000
   NR  14     0.00000000     0.00000021    -0.00000000     0.00000028    -0.99999993    -0.00000358     0.00000000     0.00001425
   NR  15     0.00000144     0.00000000     0.00000176     0.38859242    -0.00000319     0.92140943    -0.00064961     0.00000000
   NR  16     0.00000209    -0.00000000    -0.00000136     0.92140760     0.00000165    -0.38859293    -0.00184837     0.00000000
rescaling new expansion vector ... old norm=   5392.5394727284

 model space basis from reindexls .. 
 --SO-CI-------         -----NR-CI-------             ---model space---- 
 Gamma  root             S   irrep   root                S   ms* 
A          1             1   A         1                 1   0+
A          2             1   A         2                 1   0+
A          3             1   A         3                 1   0+
A          4             1   A         4                 1   0+
A          5             3   A         1                 3   0+
A          6             3   A         1                 3   1+
A          7             3   A         1                 3   1-
A          8             3   A         2                 3   0+
A          9             3   A         2                 3   1+
A         10             3   A         2                 3   1-
A         11             3   A         3                 3   0+
A         12             3   A         3                 3   1+
A         13             3   A         3                 3   1-
A         14             3   A         4                 3   0+
A         15             3   A         4                 3   1+
A         16             3   A         4                 3   1-

************************** SUMMARY *********************************

--------------  SO matrix for irrep A in eV ---------------- 
|1,0+;1,A,1>  -961.964   
|1,0+;1,A,2>     0.000    -959.200   
|1,0+;1,A,3>     0.000       0.000    -957.133   
|1,0+;1,A,4>     0.000       0.000       0.000    -957.133   
|3,0+;3,A,1>    -0.000      -0.000       0.000      -0.000    -959.495   
|3,1+;3,A,1>     0.002      -0.000       0.000       0.000       0.000    -959.495   
|3,1-;3,A,1>    -0.001       0.000       0.000       0.000      -0.000      -0.000    -959.495   
|3,0+;3,A,2>     0.000       0.000       0.000       0.000       0.000      -0.001      -0.001    -957.801   
|3,1+;3,A,2>     0.000      -0.001       0.000      -0.000       0.001       0.000      -0.000       0.000    -957.801   
|3,1-;3,A,2>     0.000       0.001       0.000      -0.000       0.001       0.000       0.000      -0.000      -0.000    -957.801   
|3,0+;3,A,3>    -0.000      -0.000       0.000       0.000       0.000      -0.000      -0.000       0.000       0.000      -0.000    -957.589   
|3,1+;3,A,3>    -0.000      -0.000      -0.001       0.000       0.000       0.000       0.000      -0.000       0.000      -0.000       0.000    -957.589   
|3,1-;3,A,3>     0.000       0.000       0.001      -0.000       0.000      -0.000       0.000       0.000       0.000       0.000       0.000      -0.000    -957.589   
|3,0+;3,A,4>     0.000      -0.000      -0.000      -0.000       0.000       0.001       0.001       0.000      -0.000      -0.000       0.000      -0.000      -0.000    -957.169   
|3,1+;3,A,4>    -0.000       0.001       0.000      -0.000      -0.001       0.000       0.000       0.000       0.000       0.000       0.000       0.000      -0.000      -0.000    -957.169   
|3,1-;3,A,4>     0.000      -0.001       0.000      -0.000      -0.001      -0.000       0.000       0.000      -0.000       0.000       0.000       0.000       0.000       0.000      -0.000    -957.169   

--------------  SO matrix for irrep A in cm-1 ------------------- 
Eref = -35.35151705
|1,0+;1,A,1>      0.00   
|1,0+;1,A,2>      0.00    22293.38   
|1,0+;1,A,3>      0.00        0.00    38960.13   
|1,0+;1,A,4>      0.00        0.00        0.00    38960.57   
|3,0+;3,A,1>      0.00       -0.08        0.05        0.00    19910.26   
|3,1+;3,A,1>     14.39        0.00        0.00        0.59        0.00    19910.26   
|3,1-;3,A,1>    -11.65        0.00        0.00        0.48        0.00        0.00    19910.26   
|3,0+;3,A,2>      0.00        0.00        0.00        0.00        0.00       -5.30       -5.71    33578.37   
|3,1+;3,A,2>      0.00       -5.87        0.98        0.00        5.30        0.00        0.00        0.00    33578.37   
|3,1-;3,A,2>      0.00        5.30        0.17        0.00        5.71        0.00        0.00        0.00        0.00    33578.37   
|3,0+;3,A,3>     -0.00        0.00        0.00        0.00        0.00       -1.58       -0.63        0.00        0.00        0.00    35283.08   
|3,1+;3,A,3>      0.00       -0.67       -4.78        0.00        1.58        0.00        0.00        0.00        0.00       -0.01        0.00    35283.08   
|3,1-;3,A,3>      0.00        1.71        4.52        0.00        0.63        0.00        0.00        0.00        0.01        0.00        0.00        0.00    35283.08   
|3,0+;3,A,4>      0.00        0.00        0.00       -0.00        0.00        4.94        5.20        0.00        0.00        0.00        0.00        0.00        0.00    38668.15   
|3,1+;3,A,4>      0.00        5.08        0.19        0.00       -4.94        0.00        0.00        0.00        0.00        0.00        0.00        0.00       -0.01        0.00    38668.15   
|3,1-;3,A,4>      0.00       -4.79        0.54        0.00       -5.20        0.00        0.00        0.00        0.00        0.00        0.00        0.01        0.00        0.00        0.00    38668.15   


 ** perturbational estimate of Spin-Orbit CI energies and wavefunctions in model space basis** 

                      A  1         A  2         A  3         A  4         A  5         A  6         A  7         A  8

            energy  -286.02280597  -285.93208826  -285.93208826  -285.93208815  -285.92123001  -285.86981182  -285.86981182  -285.86981182
          
   |1,0+;1,A,1>    -0.99999957     0.00000000     0.00002284     0.00092984    -0.00000000     0.00000000     0.00000004     0.00000000
   |1,0+;1,A,2>     0.00000000    -0.00003382     0.00000000     0.00000000    -0.99999965    -0.00001758     0.00000000    -0.00070057
   |1,0+;1,A,3>    -0.00000000     0.00000255    -0.00000000    -0.00000000    -0.00000002    -0.00014792    -0.00000000    -0.00010973
   |1,0+;1,A,4>    -0.00000000    -0.00000000    -0.00003913    -0.00000711    -0.00000000     0.00000000    -0.00000082     0.00000000
   |3,0+;3,A,1>    -0.00000000    -0.99999976     0.00000002    -0.00000000     0.00003381     0.00057024     0.00000000    -0.00000662
   |3,1+;3,A,1>     0.00072284     0.00000001     0.64821588     0.76145611     0.00000000     0.00000000    -0.00038795    -0.00000000
   |3,1-;3,A,1>    -0.00058534     0.00000001     0.76145629    -0.64821580    -0.00000000     0.00000000    -0.00041798    -0.00000000
   |3,0+;3,A,2>     0.00000008     0.00000000     0.00056975     0.00002446     0.00000000    -0.00000163     0.99999984     0.00000025
   |3,1+;3,A,2>     0.00000000     0.00038794    -0.00000000    -0.00000000    -0.00052003     0.68875444     0.00000094     0.72499439
   |3,1-;3,A,2>     0.00000000     0.00041800    -0.00000000    -0.00000000     0.00046976     0.72499447     0.00000135    -0.68875440
   |3,0+;3,A,3>    -0.00000008     0.00000000     0.00009817     0.00005173    -0.00000000     0.00000000    -0.00000052    -0.00000000
   |3,1+;3,A,3>    -0.00000000     0.00010303    -0.00000000     0.00000000    -0.00005133     0.00000306     0.00000000    -0.00000439
   |3,1-;3,A,3>     0.00000000     0.00004122    -0.00000000     0.00000000     0.00013165    -0.00000361    -0.00000000    -0.00000301
   |3,0+;3,A,4>     0.00000012    -0.00000000    -0.00038163    -0.00002081    -0.00000000    -0.00000000     0.00000080     0.00000000
   |3,1+;3,A,4>    -0.00000000    -0.00026321     0.00000000     0.00000000     0.00031040     0.00000043     0.00000000     0.00000083
   |3,1-;3,A,4>     0.00000000    -0.00027711     0.00000000     0.00000000    -0.00029228     0.00000072     0.00000000    -0.00000051

                      A  9         A 10         A 11         A 12         A 13         A 14         A 15         A 16

            energy  -285.86204467  -285.86204462  -285.86204462  -285.84662111  -285.84662111  -285.84662110  -285.84529073  -285.84528876
          
   |1,0+;1,A,1>     0.00000000    -0.00000013     0.00000000    -0.00000000    -0.00000015    -0.00000000     0.00000000    -0.00000000
   |1,0+;1,A,2>     0.00012756     0.00000000     0.00006077    -0.00014870    -0.00000000     0.00039958     0.00000021     0.00000000
   |1,0+;1,A,3>    -0.00178909    -0.00000000    -0.00000430    -0.00195553    -0.00000000     0.00011971    -0.99999646     0.00000004
   |1,0+;1,A,4>     0.00000000    -0.00000018     0.00000000     0.00000000    -0.00001424    -0.00000000    -0.00000004    -1.00000000
   |3,0+;3,A,1>    -0.00004684     0.00000001     0.00010060    -0.00035762     0.00000000    -0.00013486    -0.00000187     0.00000000
   |3,1+;3,A,1>    -0.00000000    -0.00010303     0.00000001     0.00000000    -0.00026322    -0.00000000    -0.00000000    -0.00003078
   |3,1-;3,A,1>    -0.00000000    -0.00004122     0.00000000     0.00000000    -0.00027710    -0.00000000    -0.00000000    -0.00002519
   |3,0+;3,A,2>     0.00000000     0.00000046    -0.00000000    -0.00000000     0.00000059     0.00000000    -0.00000000    -0.00000084
   |3,1+;3,A,2>     0.00000218     0.00000000     0.00000413    -0.00000076     0.00000000    -0.00000050    -0.00018144     0.00000000
   |3,1-;3,A,2>     0.00000409    -0.00000000    -0.00000326    -0.00000055    -0.00000000     0.00000045    -0.00003167     0.00000000
   |3,0+;3,A,3>     0.00000002     0.99999999    -0.00006349     0.00000000     0.00000018    -0.00000000    -0.00000000    -0.00000019
   |3,1+;3,A,3>    -0.72864249     0.00004350     0.68489300     0.00000477     0.00000000    -0.00000122     0.00130066    -0.00000000
   |3,1-;3,A,3>     0.68489189     0.00004625     0.72864365    -0.00000366     0.00000000    -0.00000181    -0.00122846     0.00000000
   |3,0+;3,A,4>     0.00000000     0.00000021    -0.00000000     0.00000028    -0.99999993    -0.00000358     0.00000000     0.00001425
   |3,1+;3,A,4>     0.00000144     0.00000000     0.00000176     0.38859242    -0.00000319     0.92140943    -0.00064961     0.00000000
   |3,1-;3,A,4>     0.00000209    -0.00000000    -0.00000136     0.92140760     0.00000165    -0.38859293    -0.00184837     0.00000000
rescaling new expansion vector ... old norm=   5392.5394727284

Sorted Energies:
1  -286.02280597 
2  -285.93208826 
3  -285.93208826 
4  -285.93208815 
5  -285.92123001 
6  -285.86981182 
7  -285.86981182 
8  -285.86981182 
9  -285.86204467 
10  -285.86204462 
11  -285.86204462 
12  -285.84662111 
13  -285.84662111 
14  -285.84662110 
15  -285.84529073 
16  -285.84528876 
Not computing transition moment with identical bra and ket.
 Calculating transition moment for (1,1) => (1,2)
 starting transci.x -m 200000 at Sat May 28 09:49:20 EDT 2022

 -------------------- transci.x ------------------------

                          State No. 1            State No. 2

   Space symmetry:           a                      a   
   No. of CSFs:          ********               ********
   State energies:      -286.02280589          -285.92122997  a.u.

   Transition energy:     0.10157592  a.u.
   Transition energy:     2.76        eV

       Transition moment components:

                 x            y            z

electron         -0.000000    -0.000000     0.038730  e*bohr
frozen core       0.000000     0.000000     0.000000  e*bohr
total (elec)     -0.000000    -0.000000     0.038730  e*bohr


   Tr.dipole length:     0.038730    e*bohr
   Oscillator strength :  0.000102
   Einstein A coef.:     0.3367E+05  1/sec
   Einstein B coef.:     0.6087E+06  sec/g

                 x            y            z

<L> electron     0.426510    -0.218997     0.000000  e*bohr


   <L> value length:     0.479449    e*bohr
 --------------------------------------------------- 
  Calculating transition moment for (1,1) => (1,3)
 starting transci.x -m 200000 at Sat May 28 09:51:43 EDT 2022

 -------------------- transci.x ------------------------

                          State No. 1            State No. 2

   Space symmetry:           a                      a   
   No. of CSFs:          ********               ********
   State energies:      -286.02280589          -285.84529079  a.u.

   Transition energy:     0.17751510  a.u.
   Transition energy:     4.83        eV

       Transition moment components:

                 x            y            z

electron          0.000001    -0.000000    -0.016045  e*bohr
frozen core       0.000000     0.000000     0.000000  e*bohr
total (elec)      0.000001    -0.000000    -0.016045  e*bohr


   Tr.dipole length:     0.016045    e*bohr
   Oscillator strength :  0.000030
   Einstein A coef.:     0.3084E+05  1/sec
   Einstein B coef.:     0.1045E+06  sec/g

                 x            y            z

<L> electron     0.002393    -0.122927    -0.000001  e*bohr


   <L> value length:     0.122950    e*bohr
 --------------------------------------------------- 
  Calculating transition moment for (1,1) => (1,4)
 starting transci.x -m 200000 at Sat May 28 09:53:58 EDT 2022

 -------------------- transci.x ------------------------

                          State No. 1            State No. 2

   Space symmetry:           a                      a   
   No. of CSFs:          ********               ********
   State energies:      -286.02280589          -285.84528876  a.u.

   Transition energy:     0.17751713  a.u.
   Transition energy:     4.83        eV

       Transition moment components:

                 x            y            z

electron          0.528548    -0.004033     0.000000  e*bohr
frozen core       0.000000     0.000000     0.000000  e*bohr
total (elec)      0.528548    -0.004033     0.000000  e*bohr


   Tr.dipole length:     0.528564    e*bohr
   Oscillator strength :  0.033063
   Einstein A coef.:     0.3347E+08  1/sec
   Einstein B coef.:     0.1134E+09  sec/g

                 x            y            z

<L> electron    -0.000000     0.000000    -0.716552  e*bohr


   <L> value length:     0.716552    e*bohr
 --------------------------------------------------- 
 Not computing transition moment with identical bra and ket.
 Calculating transition moment for (1,2) => (1,3)
 starting transci.x -m 200000 at Sat May 28 09:56:13 EDT 2022

 -------------------- transci.x ------------------------

                          State No. 1            State No. 2

   Space symmetry:           a                      a   
   No. of CSFs:          ********               ********
   State energies:      -285.92122997          -285.84529079  a.u.

   Transition energy:     0.07593918  a.u.
   Transition energy:     2.07        eV

       Transition moment components:

                 x            y            z

electron         -0.254171     0.010793    -0.000000  e*bohr
frozen core       0.000000     0.000000     0.000000  e*bohr
total (elec)     -0.254171     0.010793    -0.000000  e*bohr


   Tr.dipole length:     0.254400    e*bohr
   Oscillator strength :  0.003276
   Einstein A coef.:     0.6070E+06  1/sec
   Einstein B coef.:     0.2626E+08  sec/g

                 x            y            z

<L> electron     0.000000     0.000000     0.426064  e*bohr


   <L> value length:     0.426064    e*bohr
 --------------------------------------------------- 
  Calculating transition moment for (1,2) => (1,4)
 starting transci.x -m 200000 at Sat May 28 09:58:26 EDT 2022

 -------------------- transci.x ------------------------

                          State No. 1            State No. 2

   Space symmetry:           a                      a   
   No. of CSFs:          ********               ********
   State energies:      -285.92122997          -285.84528876  a.u.

   Transition energy:     0.07594121  a.u.
   Transition energy:     2.07        eV

       Transition moment components:

                 x            y            z

electron          0.000000    -0.000000    -0.015620  e*bohr
frozen core       0.000000     0.000000     0.000000  e*bohr
total (elec)      0.000000    -0.000000    -0.015620  e*bohr


   Tr.dipole length:     0.015620    e*bohr
   Oscillator strength :  0.000012
   Einstein A coef.:     0.2289E+04  1/sec
   Einstein B coef.:     0.9901E+05  sec/g

                 x            y            z

<L> electron     0.000579     0.040339    -0.000001  e*bohr


   <L> value length:     0.040343    e*bohr
 --------------------------------------------------- 
 Not computing transition moment with identical bra and ket.
 Calculating transition moment for (1,3) => (1,4)
 starting transci.x -m 200000 at Sat May 28 10:00:38 EDT 2022

 -------------------- transci.x ------------------------

                          State No. 1            State No. 2

   Space symmetry:           a                      a   
   No. of CSFs:          ********               ********
   State energies:      -285.84529079          -285.84528876  a.u.

   Transition energy:     0.00000203  a.u.
   Transition energy:     0.00        eV

       Transition moment components:

                 x            y            z

electron          0.000001     0.000006     0.034428  e*bohr
frozen core       0.000000     0.000000     0.000000  e*bohr
total (elec)      0.000001     0.000006     0.034428  e*bohr


   Tr.dipole length:     0.034428    e*bohr
   Oscillator strength :  0.000000
   Einstein A coef.:     0.2121E-09  1/sec
   Einstein B coef.:     0.4810E+06  sec/g

                 x            y            z

<L> electron    -0.215009     0.098374    -0.000000  e*bohr


   <L> value length:     0.236445    e*bohr
 --------------------------------------------------- 
 Not computing transition moment with identical bra and ket.
Not computing transition moment with identical bra and ket.
 Calculating transition moment for (2,1) => (2,2)
 starting transci.x -m 200000 at Sat May 28 10:02:56 EDT 2022

 -------------------- transci.x ------------------------

                          State No. 1            State No. 2

   Space symmetry:           a                      a   
   No. of CSFs:          ********               ********
   State energies:      -285.93208823          -285.86981184  a.u.

   Transition energy:     0.06227638  a.u.
   Transition energy:     1.69        eV

       Transition moment components:

                 x            y            z

electron          0.000000     0.000000     0.019662  e*bohr
frozen core       0.000000     0.000000     0.000000  e*bohr
total (elec)      0.000000     0.000000     0.019662  e*bohr


   Tr.dipole length:     0.019662    e*bohr
   Oscillator strength :  0.000016
   Einstein A coef.:     0.2000E+04  1/sec
   Einstein B coef.:     0.1569E+06  sec/g

                 x            y            z

<L> electron    -0.164932     0.078579    -0.000000  e*bohr


   <L> value length:     0.182694    e*bohr
 --------------------------------------------------- 
  Calculating transition moment for (2,1) => (2,3)
 starting transci.x -m 200000 at Sat May 28 10:07:06 EDT 2022

 -------------------- transci.x ------------------------

                          State No. 1            State No. 2

   Space symmetry:           a                      a   
   No. of CSFs:          ********               ********
   State energies:      -285.93208823          -285.86204462  a.u.

   Transition energy:     0.07004361  a.u.
   Transition energy:     1.91        eV

       Transition moment components:

                 x            y            z

electron         -0.000000    -0.000000     0.021205  e*bohr
frozen core       0.000000     0.000000     0.000000  e*bohr
total (elec)     -0.000000    -0.000000     0.021205  e*bohr


   Tr.dipole length:     0.021205    e*bohr
   Oscillator strength :  0.000021
   Einstein A coef.:     0.3310E+04  1/sec
   Einstein B coef.:     0.1825E+06  sec/g

                 x            y            z

<L> electron    -0.036161    -0.011703    -0.000000  e*bohr


   <L> value length:     0.038007    e*bohr
 --------------------------------------------------- 
  Calculating transition moment for (2,1) => (2,4)
 starting transci.x -m 200000 at Sat May 28 10:11:18 EDT 2022

 -------------------- transci.x ------------------------

                          State No. 1            State No. 2

   Space symmetry:           a                      a   
   No. of CSFs:          ********               ********
   State energies:      -285.93208823          -285.84662112  a.u.

   Transition energy:     0.08546711  a.u.
   Transition energy:     2.33        eV

       Transition moment components:

                 x            y            z

electron         -0.000000    -0.000000    -0.012098  e*bohr
frozen core       0.000000     0.000000     0.000000  e*bohr
total (elec)     -0.000000    -0.000000    -0.012098  e*bohr


   Tr.dipole length:     0.012098    e*bohr
   Oscillator strength :  0.000008
   Einstein A coef.:     0.1957E+04  1/sec
   Einstein B coef.:     0.5940E+05  sec/g

                 x            y            z

<L> electron     0.144804    -0.065474     0.000000  e*bohr


   <L> value length:     0.158919    e*bohr
 --------------------------------------------------- 
 Not computing transition moment with identical bra and ket.
 Calculating transition moment for (2,2) => (2,3)
 starting transci.x -m 200000 at Sat May 28 10:15:24 EDT 2022

 -------------------- transci.x ------------------------

                          State No. 1            State No. 2

   Space symmetry:           a                      a   
   No. of CSFs:          ********               ********
   State energies:      -285.86981184          -285.86204462  a.u.

   Transition energy:     0.00776723  a.u.
   Transition energy:     0.21        eV

       Transition moment components:

                 x            y            z

electron         -0.332677    -0.138409    -0.000000  e*bohr
frozen core       0.000000     0.000000     0.000000  e*bohr
total (elec)     -0.332677    -0.138409    -0.000000  e*bohr


   Tr.dipole length:     0.360321    e*bohr
   Oscillator strength :  0.000672
   Einstein A coef.:     0.1303E+04  1/sec
   Einstein B coef.:     0.5269E+08  sec/g

                 x            y            z

<L> electron     0.000000     0.000000    -1.010250  e*bohr


   <L> value length:     1.010250    e*bohr
 --------------------------------------------------- 
  Calculating transition moment for (2,2) => (2,4)
 starting transci.x -m 200000 at Sat May 28 10:19:27 EDT 2022

 -------------------- transci.x ------------------------

                          State No. 1            State No. 2

   Space symmetry:           a                      a   
   No. of CSFs:          ********               ********
   State energies:      -285.86981184          -285.84662112  a.u.

   Transition energy:     0.02319073  a.u.
   Transition energy:     0.63        eV

       Transition moment components:

                 x            y            z

electron          0.014008    -0.078121    -0.000000  e*bohr
frozen core       0.000000     0.000000     0.000000  e*bohr
total (elec)      0.014008    -0.078121    -0.000000  e*bohr


   Tr.dipole length:     0.079367    e*bohr
   Oscillator strength :  0.000097
   Einstein A coef.:     0.1683E+04  1/sec
   Einstein B coef.:     0.2556E+07  sec/g

                 x            y            z

<L> electron    -0.000000    -0.000000     0.085176  e*bohr


   <L> value length:     0.085176    e*bohr
 --------------------------------------------------- 
 Not computing transition moment with identical bra and ket.
 Calculating transition moment for (2,3) => (2,4)
 starting transci.x -m 200000 at Sat May 28 10:23:40 EDT 2022

 -------------------- transci.x ------------------------

                          State No. 1            State No. 2

   Space symmetry:           a                      a   
   No. of CSFs:          ********               ********
   State energies:      -285.86204462          -285.84662112  a.u.

   Transition energy:     0.01542350  a.u.
   Transition energy:     0.42        eV

       Transition moment components:

                 x            y            z

electron         -0.050313     0.000157    -0.000000  e*bohr
frozen core       0.000000     0.000000     0.000000  e*bohr
total (elec)     -0.050313     0.000157    -0.000000  e*bohr


   Tr.dipole length:     0.050313    e*bohr
   Oscillator strength :  0.000026
   Einstein A coef.:     0.1989E+03  1/sec
   Einstein B coef.:     0.1027E+07  sec/g

                 x            y            z

<L> electron    -0.000000     0.000000    -0.685438  e*bohr


   <L> value length:     0.685438    e*bohr
 --------------------------------------------------- 
 Not computing transition moment with identical bra and ket.
 --- ci properties for state 1 of  DRT 1 ----
starting exptvl.x -m 200000  at Sat May 28 10:27:43 EDT 2022

 -------------------- exptvl.x ------------------------
  === dipole moment === 
                     X               Y               Z   
   orign x       0.00000000      0.00000000      0.00000000
   orign y       0.00000000      0.00000000      0.00000000
   orign z       0.00000000      0.00000000      0.00000000
   nuclear      -0.32120369     -2.19973212      0.00000000
   electronic    0.19753109      1.09291359      0.00000000
   total        -0.12367260     -1.10681853      0.00000000
   total Dipole moment =   2.83076239    Debye
 --------------------------------------------------- 
  --- ci properties for state 2 of  DRT 1 ----
starting exptvl.x -m 200000  at Sat May 28 10:27:43 EDT 2022

 -------------------- exptvl.x ------------------------
  === dipole moment === 
                     X               Y               Z   
   orign x       0.00000000      0.00000000      0.00000000
   orign y       0.00000000      0.00000000      0.00000000
   orign z       0.00000000      0.00000000      0.00000000
   nuclear      -0.32120369     -2.19973212      0.00000000
   electronic    1.30550135      3.91618150      0.00000000
   total         0.98429766      1.71644938      0.00000000
   total Dipole moment =   5.02922173    Debye
 --------------------------------------------------- 
  --- ci properties for state 3 of  DRT 1 ----
starting exptvl.x -m 200000  at Sat May 28 10:27:44 EDT 2022

 -------------------- exptvl.x ------------------------
  === dipole moment === 
                     X               Y               Z   
   orign x       0.00000000      0.00000000      0.00000000
   orign y       0.00000000      0.00000000      0.00000000
   orign z       0.00000000      0.00000000      0.00000000
   nuclear      -0.32120369     -2.19973212      0.00000000
   electronic    1.26685433      4.84734392     -0.00000009
   total         0.94565064      2.64761180     -0.00000009
   total Dipole moment =   7.14593345    Debye
 --------------------------------------------------- 
  --- ci properties for state 4 of  DRT 1 ----
starting exptvl.x -m 200000  at Sat May 28 10:27:44 EDT 2022

 -------------------- exptvl.x ------------------------
  === dipole moment === 
                     X               Y               Z   
   orign x       0.00000000      0.00000000      0.00000000
   orign y       0.00000000      0.00000000      0.00000000
   orign z       0.00000000      0.00000000      0.00000000
   nuclear      -0.32120369     -2.19973212      0.00000000
   electronic    0.21760112      0.67242157      0.00000009
   total        -0.10360257     -1.52731055      0.00000009
   total Dipole moment =   3.89096114    Debye
 --------------------------------------------------- 
  --- ci properties for state 1 of  DRT 2 ----
starting exptvl.x -m 200000  at Sat May 28 10:27:44 EDT 2022

 -------------------- exptvl.x ------------------------
  === dipole moment === 
                     X               Y               Z   
   orign x       0.00000000      0.00000000      0.00000000
   orign y       0.00000000      0.00000000      0.00000000
   orign z       0.00000000      0.00000000      0.00000000
   nuclear      -0.32120369     -2.19973212      0.00000000
   electronic    1.33650622      3.85930630      0.00000000
   total         1.01530253      1.65957418      0.00000000
   total Dipole moment =   4.94500890    Debye
 --------------------------------------------------- 
  --- ci properties for state 2 of  DRT 2 ----
starting exptvl.x -m 200000  at Sat May 28 10:27:45 EDT 2022

 -------------------- exptvl.x ------------------------
  === dipole moment === 
                     X               Y               Z   
   orign x       0.00000000      0.00000000      0.00000000
   orign y       0.00000000      0.00000000      0.00000000
   orign z       0.00000000      0.00000000      0.00000000
   nuclear      -0.32120369     -2.19973212      0.00000000
   electronic    0.12682333      1.12702054      0.00000000
   total        -0.19438036     -1.07271158      0.00000000
   total Dipole moment =   2.77096558    Debye
 --------------------------------------------------- 
  --- ci properties for state 3 of  DRT 2 ----
starting exptvl.x -m 200000  at Sat May 28 10:27:45 EDT 2022

 -------------------- exptvl.x ------------------------
  === dipole moment === 
                     X               Y               Z   
   orign x       0.00000000      0.00000000      0.00000000
   orign y       0.00000000      0.00000000      0.00000000
   orign z       0.00000000      0.00000000      0.00000000
   nuclear      -0.32120369     -2.19973212      0.00000000
   electronic    0.29217690      0.28583853     -0.00000000
   total        -0.02902679     -1.91389359     -0.00000000
   total Dipole moment =   4.86519655    Debye
 --------------------------------------------------- 
  --- ci properties for state 4 of  DRT 2 ----
starting exptvl.x -m 200000  at Sat May 28 10:27:45 EDT 2022

 -------------------- exptvl.x ------------------------
  === dipole moment === 
                     X               Y               Z   
   orign x       0.00000000      0.00000000      0.00000000
   orign y       0.00000000      0.00000000      0.00000000
   orign z       0.00000000      0.00000000      0.00000000
   nuclear      -0.32120369     -2.19973212      0.00000000
   electronic    0.20296064      0.71489054      0.00000000
   total        -0.11824305     -1.48484158      0.00000000
   total Dipole moment =   3.78604237    Debye
 --------------------------------------------------- 
 starting mo_convert.x at Sat May 28 10:27:45 EDT 2022

 -------------------- mo_convert.x ------------------------
 --------------------------------------------------- 
 starting pymolcas molcas.input.molden > molcas.output.molden at Sat May 28 10:27:46 EDT 2022

Generating link ln -s ./molcas.OrdInt ORDINT 
 -------------------- molden ------------------------
 --------------------------------------------------- 
 starting mo_convert.x at Sat May 28 10:28:10 EDT 2022

 -------------------- mo_convert.x ------------------------
 --------------------------------------------------- 
 starting pymolcas molcas.input.molden > molcas.output.molden at Sat May 28 10:28:11 EDT 2022

Generating link ln -s ./molcas.OrdInt ORDINT 
 -------------------- molden ------------------------
 --------------------------------------------------- 
 starting mo_convert.x at Sat May 28 10:28:28 EDT 2022

 -------------------- mo_convert.x ------------------------
 --------------------------------------------------- 
 starting pymolcas molcas.input.molden > molcas.output.molden at Sat May 28 10:28:28 EDT 2022

Generating link ln -s ./molcas.OrdInt ORDINT 
 -------------------- molden ------------------------
 --------------------------------------------------- 
 starting mo_convert.x at Sat May 28 10:28:42 EDT 2022

 -------------------- mo_convert.x ------------------------
 --------------------------------------------------- 
 starting pymolcas molcas.input.molden > molcas.output.molden at Sat May 28 10:28:42 EDT 2022

Generating link ln -s ./molcas.OrdInt ORDINT 
 -------------------- molden ------------------------
 --------------------------------------------------- 
 starting mo_convert.x at Sat May 28 10:28:56 EDT 2022

 -------------------- mo_convert.x ------------------------
 --------------------------------------------------- 
 starting pymolcas molcas.input.molden > molcas.output.molden at Sat May 28 10:28:57 EDT 2022

Generating link ln -s ./molcas.OrdInt ORDINT 
 -------------------- molden ------------------------
 --------------------------------------------------- 
 starting mo_convert.x at Sat May 28 10:29:11 EDT 2022

 -------------------- mo_convert.x ------------------------
 --------------------------------------------------- 
 starting pymolcas molcas.input.molden > molcas.output.molden at Sat May 28 10:29:11 EDT 2022

Generating link ln -s ./molcas.OrdInt ORDINT 
 -------------------- molden ------------------------
 --------------------------------------------------- 
 starting mo_convert.x at Sat May 28 10:29:25 EDT 2022

 -------------------- mo_convert.x ------------------------
 --------------------------------------------------- 
 starting pymolcas molcas.input.molden > molcas.output.molden at Sat May 28 10:29:26 EDT 2022

Generating link ln -s ./molcas.OrdInt ORDINT 
 -------------------- molden ------------------------
 --------------------------------------------------- 
 starting mo_convert.x at Sat May 28 10:29:40 EDT 2022

 -------------------- mo_convert.x ------------------------
 --------------------------------------------------- 
 starting pymolcas molcas.input.molden > molcas.output.molden at Sat May 28 10:29:40 EDT 2022

Generating link ln -s ./molcas.OrdInt ORDINT 
 -------------------- molden ------------------------
 --------------------------------------------------- 
 starting mo_convert.x at Sat May 28 10:29:54 EDT 2022

 -------------------- mo_convert.x ------------------------
 --------------------------------------------------- 
 starting pymolcas molcas.input.molden > molcas.output.molden at Sat May 28 10:29:55 EDT 2022

Generating link ln -s ./molcas.OrdInt ORDINT 
 -------------------- molden ------------------------
 --------------------------------------------------- 
 starting mo_convert.x at Sat May 28 10:30:09 EDT 2022

 -------------------- mo_convert.x ------------------------
 --------------------------------------------------- 
 starting pymolcas molcas.input.molden > molcas.output.molden at Sat May 28 10:30:09 EDT 2022

Generating link ln -s ./molcas.OrdInt ORDINT 
 -------------------- molden ------------------------
 --------------------------------------------------- 
 starting mo_convert.x at Sat May 28 10:30:23 EDT 2022

 -------------------- mo_convert.x ------------------------
 --------------------------------------------------- 
 starting pymolcas molcas.input.molden > molcas.output.molden at Sat May 28 10:30:24 EDT 2022

Generating link ln -s ./molcas.OrdInt ORDINT 
 -------------------- molden ------------------------
 --------------------------------------------------- 
 starting mo_convert.x at Sat May 28 10:30:37 EDT 2022

 -------------------- mo_convert.x ------------------------
 --------------------------------------------------- 
 starting pymolcas molcas.input.molden > molcas.output.molden at Sat May 28 10:30:38 EDT 2022

Generating link ln -s ./molcas.OrdInt ORDINT 
 -------------------- molden ------------------------
 --------------------------------------------------- 
 starting mo_convert.x at Sat May 28 10:30:52 EDT 2022

 -------------------- mo_convert.x ------------------------
 --------------------------------------------------- 
 starting pymolcas molcas.input.molden > molcas.output.molden at Sat May 28 10:30:52 EDT 2022

Generating link ln -s ./molcas.OrdInt ORDINT 
 -------------------- molden ------------------------
 --------------------------------------------------- 
 starting mo_convert.x at Sat May 28 10:31:06 EDT 2022

 -------------------- mo_convert.x ------------------------
 --------------------------------------------------- 
 starting pymolcas molcas.input.molden > molcas.output.molden at Sat May 28 10:31:07 EDT 2022

Generating link ln -s ./molcas.OrdInt ORDINT 
 -------------------- molden ------------------------
 --------------------------------------------------- 
 

 +++++++++++ STARTING GRADIENTS AND NAD. COUPLINGS CALCULATION +++++++++++ 

 Using new transition density code ... 
INFO: this is a frozen core gradient calculation
starting cidrt.x  -m 200000 < cidrtin.cigrd > cidrtls.cigrd at Sat May 28 10:31:21 EDT 2022

 -------------------- cidrt.x ------------------------
 total number of orbitals            :   246
 number of frozen core orbitals      :    18
 number of frozen virtual orbitals   :     0
 number of internal orbitals         :    14
 number of external orbitals         :   214
 spatial symmetry:   a  
 
 total number of configurations  282461366
 number of reference configurations  1666
 --------------------------------------------------- 
 starting tran.x -m 200000  at Sat May 28 10:31:28 EDT 2022

 -------------------- tran.x ------------------------
 --------------------------------------------------- 
 ---- Computing 8 gradient(s)  ----

 --- Computing gradient for DRT:1, State; 1

starting cigrd.x -m 200000 at Sat May 28 10:37:16 EDT 2022

 -------------------- cigrd.x ------------------------
 Total energy (ciudg) :  -286.022805890589 
  Effective energy     :  -286.022805904685 
  Delta E              :     0.000000014096 
  --------------------------------------------------- 
 starting tran.x -m 200000  at Sat May 28 10:44:03 EDT 2022

 -------------------- tran.x ------------------------
 --------------------------------------------------- 
 starting pymolcas molcas.input.alaska > molcas.output.alaska  at Sat May 28 10:49:19 EDT 2022

Generating link ln -s ./molcas.OrdInt ORDINT 
 -------------------- alaska ------------------------
 --------------------------------------------------- 
 cartesian gradient by alaska (MOLCAS)

 === Gradient of DRT 1, state 1 === 
   0.554054D-01   0.101079D+00  -0.627948D-08
   0.265102D-01  -0.103593D+00   0.112564D-07
  -0.195311D-01  -0.263861D-01  -0.715568D-08
   0.145151D-01  -0.936974D-02   0.362251D-08
   0.458213D-02   0.342229D-01  -0.821333D-08
  -0.508535D-02   0.354273D-01  -0.959038D-08
   0.180027D-02   0.119558D-01   0.121595D-07
  -0.991421D-01  -0.532777D-01  -0.680706D-09
   0.198020D-01   0.972853D-02   0.853790D-09
   0.446761D-02   0.268365D-03   0.170841D-08
  -0.312776D-02   0.656113D-03   0.474525D-09
   0.914930D-03  -0.149767D-03   0.219428D-08
  -0.123349D-02   0.795634D-03   0.745843D-09
   0.122242D-03  -0.135756D-02  -0.109571D-08
===================================
 --- Computing gradient for DRT:1, State; 2

starting cigrd.x -m 200000 at Sat May 28 10:50:37 EDT 2022

 -------------------- cigrd.x ------------------------
 Total energy (ciudg) :  -285.921229968395 
  Effective energy     :  -285.921229980465 
  Delta E              :     0.000000012070 
  --------------------------------------------------- 
 starting tran.x -m 200000  at Sat May 28 10:58:28 EDT 2022

 -------------------- tran.x ------------------------
 --------------------------------------------------- 
 starting pymolcas molcas.input.alaska > molcas.output.alaska  at Sat May 28 11:03:46 EDT 2022

Generating link ln -s ./molcas.OrdInt ORDINT 
 -------------------- alaska ------------------------
 --------------------------------------------------- 
 cartesian gradient by alaska (MOLCAS)

 === Gradient of DRT 1, state 2 === 
  -0.216619D-01  -0.147976D-01  -0.348434D-08
  -0.432318D-02  -0.192029D-01   0.612183D-08
   0.124193D-01  -0.443758D-01  -0.140068D-07
  -0.638394D-02  -0.463974D-01   0.107814D-07
   0.129495D-01   0.482247D-01  -0.108564D-07
  -0.216097D-01   0.512073D-01  -0.723213D-08
   0.454387D-02   0.963897D-02   0.130124D-07
   0.292611D-01   0.168390D-01  -0.296905D-09
  -0.450896D-02  -0.177124D-02   0.220222D-08
   0.515047D-03   0.671639D-04   0.216541D-08
  -0.921507D-03   0.531774D-03  -0.101226D-10
   0.233244D-03   0.525244D-03   0.379449D-08
  -0.493406D-03   0.575451D-03   0.230515D-09
  -0.194948D-04  -0.106466D-02  -0.242162D-08
===================================
 --- Computing gradient for DRT:1, State; 3

starting cigrd.x -m 200000 at Sat May 28 11:05:05 EDT 2022

 -------------------- cigrd.x ------------------------
 Total energy (ciudg) :  -285.845290790406 
  Effective energy     :  -285.845290801818 
  Delta E              :     0.000000011412 
  --------------------------------------------------- 
 starting tran.x -m 200000  at Sat May 28 11:13:06 EDT 2022

 -------------------- tran.x ------------------------
 --------------------------------------------------- 
 starting pymolcas molcas.input.alaska > molcas.output.alaska  at Sat May 28 11:18:25 EDT 2022

Generating link ln -s ./molcas.OrdInt ORDINT 
 -------------------- alaska ------------------------
 --------------------------------------------------- 
 cartesian gradient by alaska (MOLCAS)

 === Gradient of DRT 1, state 3 === 
  -0.353363D-02  -0.502909D-02  -0.681997D-07
  -0.136434D-02   0.491796D-02  -0.570458D-08
  -0.369602D-03  -0.560621D-03   0.106782D-08
   0.872513D-03  -0.894878D-03   0.127079D-07
  -0.164906D-02  -0.123544D-03  -0.740505D-08
   0.190151D-02  -0.495559D-03  -0.353037D-08
  -0.462482D-03  -0.303842D-03   0.185219D-07
   0.561717D-02   0.300649D-02   0.348250D-07
  -0.965699D-03  -0.451848D-03   0.131007D-07
  -0.196280D-03  -0.393611D-04   0.252951D-08
   0.119375D-03  -0.642360D-04   0.445252D-08
   0.282082D-04   0.240919D-04  -0.211818D-08
  -0.262817D-05  -0.503016D-04  -0.792847D-09
   0.494501D-05   0.647449D-04   0.545360D-09
===================================
 --- Computing gradient for DRT:1, State; 4

starting cigrd.x -m 200000 at Sat May 28 11:19:46 EDT 2022

 -------------------- cigrd.x ------------------------
 Total energy (ciudg) :  -285.845288761247 
  Effective energy     :  -285.845288776878 
  Delta E              :     0.000000015631 
  --------------------------------------------------- 
 starting tran.x -m 200000  at Sat May 28 11:26:56 EDT 2022

 -------------------- tran.x ------------------------
 --------------------------------------------------- 
 starting pymolcas molcas.input.alaska > molcas.output.alaska  at Sat May 28 11:32:14 EDT 2022

Generating link ln -s ./molcas.OrdInt ORDINT 
 -------------------- alaska ------------------------
 --------------------------------------------------- 
 cartesian gradient by alaska (MOLCAS)

 === Gradient of DRT 1, state 4 === 
   0.605277D-01   0.899491D-01   0.697308D-07
   0.285167D-01  -0.867571D-01  -0.152659D-08
   0.492195D-02   0.100125D-01  -0.355602D-08
  -0.141735D-01   0.171672D-01  -0.299450D-08
   0.277433D-01   0.375704D-02   0.424165D-08
  -0.309506D-01   0.958621D-02  -0.161489D-07
   0.652867D-02   0.228717D-02   0.266306D-09
  -0.101761D+00  -0.558992D-01  -0.347023D-07
   0.176825D-01   0.933562D-02  -0.139956D-07
   0.354961D-02   0.126581D-03  -0.210835D-08
  -0.223863D-02   0.524267D-03  -0.668770D-10
  -0.369650D-03  -0.114330D-03   0.547833D-09
  -0.875328D-04   0.119340D-02   0.836812D-09
   0.110446D-03  -0.116849D-02  -0.524336D-09
===================================
 --- Computing gradient for DRT:2, State; 1

starting cigrd.x -m 200000 at Sat May 28 11:33:29 EDT 2022

 -------------------- cigrd.x ------------------------
 Total energy (ciudg) :  -285.932088225923 
  Effective energy     :  -285.932088238344 
  Delta E              :     0.000000012421 
  --------------------------------------------------- 
 starting tran.x -m 200000  at Sat May 28 11:40:23 EDT 2022

 -------------------- tran.x ------------------------
 --------------------------------------------------- 
 starting pymolcas molcas.input.alaska > molcas.output.alaska  at Sat May 28 11:45:40 EDT 2022

Generating link ln -s ./molcas.OrdInt ORDINT 
 -------------------- alaska ------------------------
 --------------------------------------------------- 
 cartesian gradient by alaska (MOLCAS)

 === Gradient of DRT 2, state 1 === 
  -0.213475D-01  -0.197087D-02  -0.419961D-08
  -0.393001D-02  -0.403897D-01   0.926005D-08
   0.698252D-02  -0.388651D-01  -0.127329D-07
  -0.100398D-02  -0.395172D-01   0.830759D-08
   0.111578D-01   0.448369D-01  -0.106605D-07
  -0.192469D-01   0.472450D-01  -0.991595D-08
   0.388639D-02   0.124337D-01   0.155311D-07
   0.302582D-01   0.175702D-01  -0.631145D-09
  -0.570463D-02  -0.190926D-02   0.204395D-08
   0.489181D-03   0.141150D-03   0.170387D-08
  -0.122620D-02   0.556393D-03  -0.399359D-09
   0.245471D-03   0.487035D-03   0.402705D-08
  -0.526203D-03   0.518888D-03   0.547575D-09
  -0.342117D-04  -0.113708D-02  -0.288166D-08
===================================
 --- Computing gradient for DRT:2, State; 2

starting cigrd.x -m 200000 at Sat May 28 11:46:58 EDT 2022

 -------------------- cigrd.x ------------------------
 Total energy (ciudg) :  -285.869811844603 
  Effective energy     :  -285.869811858588 
  Delta E              :     0.000000013985 
  --------------------------------------------------- 
 starting tran.x -m 200000  at Sat May 28 11:54:54 EDT 2022

 -------------------- tran.x ------------------------
 --------------------------------------------------- 
 starting pymolcas molcas.input.alaska > molcas.output.alaska  at Sat May 28 12:00:15 EDT 2022

Generating link ln -s ./molcas.OrdInt ORDINT 
 -------------------- alaska ------------------------
 --------------------------------------------------- 
 cartesian gradient by alaska (MOLCAS)

 === Gradient of DRT 2, state 2 === 
   0.622774D-01   0.111986D+00  -0.162846D-08
  -0.803792D-03  -0.926881D-01   0.557933D-08
   0.648015D-02   0.418303D-02  -0.204383D-08
   0.853561D-02   0.206506D-01   0.142704D-07
   0.143453D-01  -0.893139D-02  -0.111111D-07
  -0.367084D-01   0.146405D-01  -0.665097D-08
   0.262865D-01  -0.387173D-02  -0.297727D-09
  -0.103400D+00  -0.553513D-01  -0.550489D-09
   0.212216D-01   0.938985D-02  -0.209004D-09
   0.407627D-02  -0.380009D-03   0.323285D-08
  -0.265049D-02   0.283316D-03  -0.120875D-08
  -0.311403D-04  -0.236495D-03   0.224399D-08
  -0.217882D-03   0.105212D-02  -0.126343D-08
   0.588686D-03  -0.726685D-03  -0.362821D-09
===================================
 --- Computing gradient for DRT:2, State; 3

starting cigrd.x -m 200000 at Sat May 28 12:01:29 EDT 2022

 -------------------- cigrd.x ------------------------
 Total energy (ciudg) :  -285.862044619440 
  Effective energy     :  -285.862044634730 
  Delta E              :     0.000000015290 
  --------------------------------------------------- 
 starting tran.x -m 200000  at Sat May 28 12:08:56 EDT 2022

 -------------------- tran.x ------------------------
 --------------------------------------------------- 
 starting pymolcas molcas.input.alaska > molcas.output.alaska  at Sat May 28 12:14:12 EDT 2022

Generating link ln -s ./molcas.OrdInt ORDINT 
 -------------------- alaska ------------------------
 --------------------------------------------------- 
 cartesian gradient by alaska (MOLCAS)

 === Gradient of DRT 2, state 3 === 
   0.591491D-01   0.692967D-01  -0.693078D-08
   0.570185D-01  -0.691095D-01  -0.905056D-08
  -0.693749D-02   0.104932D-01   0.146694D-08
  -0.280009D-01   0.145712D-01   0.111794D-07
   0.362379D-01   0.666237D-02  -0.292373D-08
  -0.140861D-01  -0.923556D-02  -0.211414D-08
  -0.173814D-01   0.233433D-01   0.293400D-08
  -0.102461D+00  -0.571608D-01  -0.307651D-10
   0.158839D-01   0.938885D-02   0.209196D-08
   0.302968D-02   0.989642D-03   0.241907D-08
  -0.152793D-02   0.114958D-02   0.114153D-08
  -0.700593D-03   0.241765D-03   0.256374D-08
   0.112414D-03   0.129862D-02  -0.165122D-08
  -0.336064D-03  -0.192943D-02  -0.109541D-08
===================================
 --- Computing gradient for DRT:2, State; 4

starting cigrd.x -m 200000 at Sat May 28 12:15:29 EDT 2022

 -------------------- cigrd.x ------------------------
 Total energy (ciudg) :  -285.846621118397 
  Effective energy     :  -285.846621132606 
  Delta E              :     0.000000014209 
[...]
  -1.616733E-08  -6.169742E-09   4.425185E-03
   2.740347E-08  -1.263220E-08   5.627623E-02
  -1.475163E-08   1.224033E-08  -1.430660E-01
  -2.379030E-08  -1.249451E-08  -2.635117E-02
   1.379753E-08  -1.280534E-08  -3.237983E-02
   6.070376E-09   1.408872E-08   8.197234E-03
  -1.417944E-08   4.500976E-10  -1.985794E-01
  -1.291360E-09  -4.493488E-09  -6.687923E-02
  -3.312761E-09  -7.786162E-09   1.457378E-02
   5.639999E-10   6.900346E-10   2.093103E-03
   7.810232E-10  -1.559596E-09  -2.693032E-03
   1.224546E-10   3.492974E-10   1.825890E-02
   2.869906E-10  -7.706276E-10   1.057657E-02
===================================

 Norm of the nonadiabatic coupling vector: 
 |h(drt2.state1,drt2.state2)|= 0.458546934732279 

 Cross-check of the non-adiabatic coupling term:
  DeltaE= -0.0622763812999665

  <L>*dE form CIGRD   :    0.0000000000    -0.0000000000     0.0426865982
  <L>*dE form NADCOUPL:    0.0102725072    -0.0048928542    -0.0000000048
 -------------------------------------------------------------------------
  Difference          :   -0.0102725072     0.0048928542     0.0426866030

 NOTE: This test is meaningless at a point of conical intersection!


 -------- NAD. COUPLING for DRT:2 STATE:1 AND DRT:2 STATE:3 --------
opening file =ciudgls.drt2.sp
opening file =ciudgls.drt2.sp
extracted: energy1= -285.9320882258   energy2=-285.8620446193   deltae=-0.0700436065000076
starting cigrd.x -m 200000 at Sat May 28 14:10:15 EDT 2022

 -------------------- cigrd.x ------------------------
 Total energy (ciudg) :     0.000000000145 
  Effective energy     :    -0.000000001541 
  Delta E              :     0.000000001686 
  --------------------------------------------------- 
 starting tran.x -m 200000  at Sat May 28 14:17:16 EDT 2022

 -------------------- tran.x ------------------------
 --------------------------------------------------- 
  adding keyword NONUC to alaska input
starting pymolcas molcas.input.alaska > molcas.output.alaska  at Sat May 28 14:22:20 EDT 2022

Generating link ln -s ./molcas.OrdInt ORDINT 
 -------------------- alaska ------------------------
 --------------------------------------------------- 
 cartesian gradient by alaska (MOLCAS)

 Calculating the Dx(r,s) term of D[CSF] nonadiabatic coupling term.
dxcalc: INPUT LINE SEPARATOR 
 
starting tran.x -m 200000  at Sat May 28 14:23:24 EDT 2022

 -------------------- tran.x ------------------------
 --------------------------------------------------- 
 starting tdmrunfile.x > tdmrunfilels at Sat May 28 14:23:24 EDT 2022

 -------------------- tdmrunfile.x ------------------------
 --------------------------------------------------- 
 starting pymolcas molcas.input.alaska > molcas.output.alaska  at Sat May 28 14:23:24 EDT 2022

Generating link ln -s ./molcas.OrdInt ORDINT 
 -------------------- alaska ------------------------
 --------------------------------------------------- 
 
 === Non-adiabatic coupling for DRT 2 STATE 1 and DRT 2 STATE 3 === 
  -1.066734E-07  -1.500909E-09  -4.873756E-02
   5.007879E-08  -4.657536E-08   2.405801E-02
  -2.410593E-08   5.090012E-08   3.949399E-02
  -2.106691E-08  -1.494940E-08   6.065384E-02
   8.686525E-09   7.523473E-10  -8.475245E-04
   2.144227E-08  -1.316457E-08  -3.998987E-02
  -9.985201E-09   9.042476E-09   2.753337E-02
   5.722581E-08   2.465183E-08   4.934165E-02
   1.635169E-08   4.306534E-09  -4.054558E-02
   4.939027E-09  -1.099941E-08  -4.759297E-02
   4.152086E-09  -8.456789E-09   2.375727E-02
  -3.132248E-09   1.877518E-09  -1.517803E-02
   2.458462E-09   1.051763E-09  -3.007736E-02
  -3.658932E-10   3.110171E-09   6.124086E-04
===================================

 Norm of the nonadiabatic coupling vector: 
 |h(drt2.state1,drt2.state3)|= 0.136360669160364 

 Cross-check of the non-adiabatic coupling term:
  DeltaE= -0.0700436065000076

  <L>*dE form CIGRD   :    0.0000000000    -0.0000000000     0.0480105496
  <L>*dE form NADCOUPL:    0.0025360224     0.0008172146     0.0000000158
 -------------------------------------------------------------------------
  Difference          :   -0.0025360224    -0.0008172146     0.0480105338

 NOTE: This test is meaningless at a point of conical intersection!


 -------- NAD. COUPLING for DRT:2 STATE:1 AND DRT:2 STATE:4 --------
opening file =ciudgls.drt2.sp
opening file =ciudgls.drt2.sp
extracted: energy1= -285.9320882258   energy2=-285.8466211183   deltae=-0.0854671074999942
starting cigrd.x -m 200000 at Sat May 28 14:24:27 EDT 2022

 -------------------- cigrd.x ------------------------
 Total energy (ciudg) :    -0.000000000127 
  Effective energy     :    -0.000000000131 
  Delta E              :     0.000000000004 
  --------------------------------------------------- 
 starting tran.x -m 200000  at Sat May 28 14:31:17 EDT 2022

 -------------------- tran.x ------------------------
 --------------------------------------------------- 
  adding keyword NONUC to alaska input
starting pymolcas molcas.input.alaska > molcas.output.alaska  at Sat May 28 14:36:29 EDT 2022

Generating link ln -s ./molcas.OrdInt ORDINT 
 -------------------- alaska ------------------------
 --------------------------------------------------- 
 cartesian gradient by alaska (MOLCAS)

 Calculating the Dx(r,s) term of D[CSF] nonadiabatic coupling term.
dxcalc: INPUT LINE SEPARATOR 
 
starting tran.x -m 200000  at Sat May 28 14:37:35 EDT 2022

 -------------------- tran.x ------------------------
 --------------------------------------------------- 
 starting tdmrunfile.x > tdmrunfilels at Sat May 28 14:37:36 EDT 2022

 -------------------- tdmrunfile.x ------------------------
 --------------------------------------------------- 
 starting pymolcas molcas.input.alaska > molcas.output.alaska  at Sat May 28 14:37:36 EDT 2022

Generating link ln -s ./molcas.OrdInt ORDINT 
 -------------------- alaska ------------------------
 --------------------------------------------------- 
 
 === Non-adiabatic coupling for DRT 2 STATE 1 and DRT 2 STATE 4 === 
  -6.346283E-09  -3.496630E-09  -2.416357E-01
  -3.438396E-09  -1.516882E-08  -2.205825E-02
  -5.717420E-09   1.069779E-08  -4.384462E-02
   1.586772E-08   7.327527E-09   1.024498E-01
   2.070564E-11   1.113576E-09   2.814988E-02
   3.336889E-09   2.925131E-09   3.899531E-02
  -4.541166E-09  -2.690444E-09  -1.366180E-02
   6.994615E-09   7.791585E-10   1.316641E-01
  -6.293770E-09  -3.266807E-09   4.545360E-02
   1.573173E-09   4.061383E-09  -1.389385E-02
  -1.122977E-09  -4.364408E-09  -9.722658E-03
  -1.690695E-10   1.214957E-09   5.202719E-03
   4.561743E-11   1.968625E-10  -1.279149E-02
  -2.475266E-10   6.792486E-10  -1.168877E-02
===================================

 Norm of the nonadiabatic coupling vector: 
 |h(drt2.state1,drt2.state4)|= 0.306282086914098 

 Cross-check of the non-adiabatic coupling term:
  DeltaE= -0.0854671074999942

  <L>*dE form CIGRD   :    0.0000000000    -0.0000000000     0.0585824032
  <L>*dE form NADCOUPL:   -0.0123813475     0.0055957083     0.0000000056
 -------------------------------------------------------------------------
  Difference          :    0.0123813475    -0.0055957083     0.0585823977

 NOTE: This test is meaningless at a point of conical intersection!


 -------- NAD. COUPLING for DRT:2 STATE:2 AND DRT:2 STATE:3 --------
opening file =ciudgls.drt2.sp
opening file =ciudgls.drt2.sp
extracted: energy1= -285.8698118445   energy2=-285.8620446193   deltae=-0.00776722520004114
starting cigrd.x -m 200000 at Sat May 28 14:38:40 EDT 2022

 -------------------- cigrd.x ------------------------
 Total energy (ciudg) :     0.000000001714 
  Effective energy     :     0.000000005180 
  Delta E              :    -0.000000003466 
  --------------------------------------------------- 
 starting tran.x -m 200000  at Sat May 28 14:45:45 EDT 2022

 -------------------- tran.x ------------------------
 --------------------------------------------------- 
  adding keyword NONUC to alaska input
starting pymolcas molcas.input.alaska > molcas.output.alaska  at Sat May 28 14:51:01 EDT 2022

Generating link ln -s ./molcas.OrdInt ORDINT 
 -------------------- alaska ------------------------
 --------------------------------------------------- 
 cartesian gradient by alaska (MOLCAS)

 Calculating the Dx(r,s) term of D[CSF] nonadiabatic coupling term.
dxcalc: INPUT LINE SEPARATOR 
 
starting tran.x -m 200000  at Sat May 28 14:52:08 EDT 2022

 -------------------- tran.x ------------------------
 --------------------------------------------------- 
 starting tdmrunfile.x > tdmrunfilels at Sat May 28 14:52:08 EDT 2022

 -------------------- tdmrunfile.x ------------------------
 --------------------------------------------------- 
 starting pymolcas molcas.input.alaska > molcas.output.alaska  at Sat May 28 14:52:08 EDT 2022

Generating link ln -s ./molcas.OrdInt ORDINT 
 -------------------- alaska ------------------------
 --------------------------------------------------- 
 
 === Non-adiabatic coupling for DRT 2 STATE 2 and DRT 2 STATE 3 === 
   1.799929E+00  -1.055849E+00   3.889389E-08
  -1.238672E+01  -6.733654E-02  -6.554036E-07
   5.527420E+00  -7.450914E-01   2.322762E-08
   5.025807E+00   1.666025E+00   1.731116E-07
  -4.870900E+00  -4.728048E+00   1.193036E-07
  -5.217563E+00   3.964081E+00   1.172020E-07
   9.958265E+00   9.137857E-01   5.430333E-08
   3.317416E-02   5.613684E-02  -2.015454E-08
  -1.425750E-01  -6.843190E-02   9.068180E-08
  -1.900245E-02  -4.557915E-02  -1.949004E-07
   2.171769E-02   9.964794E-02  -5.929382E-08
   2.003646E-02  -2.748817E-02   2.064865E-07
   3.702017E-02   4.680127E-02   1.020276E-07
   2.181267E-01  -8.924694E-03   4.470776E-09
===================================

 Norm of the nonadiabatic coupling vector: 
 |h(drt2.state2,drt2.state3)|= 20.1505664080226 

 Cross-check of the non-adiabatic coupling term:
  DeltaE= -0.00776722520004114

  <L>*dE form CIGRD   :    0.0000000000    -0.0000000000     0.0053239513
  <L>*dE form NADCOUPL:   -0.0000000214     0.0000000042     0.0078478468
 -------------------------------------------------------------------------
  Difference          :    0.0000000214    -0.0000000042    -0.0025238955

 NOTE: This test is meaningless at a point of conical intersection!


 -------- NAD. COUPLING for DRT:2 STATE:2 AND DRT:2 STATE:4 --------
opening file =ciudgls.drt2.sp
opening file =ciudgls.drt2.sp
extracted: energy1= -285.8698118445   energy2=-285.8466211183   deltae=-0.0231907262000277
starting cigrd.x -m 200000 at Sat May 28 14:53:16 EDT 2022

 -------------------- cigrd.x ------------------------
 Total energy (ciudg) :    -0.000000000025 
  Effective energy     :     0.000000003861 
  Delta E              :    -0.000000003886 
  --------------------------------------------------- 
 starting tran.x -m 200000  at Sat May 28 15:00:17 EDT 2022

 -------------------- tran.x ------------------------
 --------------------------------------------------- 
  adding keyword NONUC to alaska input
starting pymolcas molcas.input.alaska > molcas.output.alaska  at Sat May 28 15:05:26 EDT 2022

Generating link ln -s ./molcas.OrdInt ORDINT 
 -------------------- alaska ------------------------
 --------------------------------------------------- 
 cartesian gradient by alaska (MOLCAS)

 Calculating the Dx(r,s) term of D[CSF] nonadiabatic coupling term.
dxcalc: INPUT LINE SEPARATOR 
 
starting tran.x -m 200000  at Sat May 28 15:06:35 EDT 2022

 -------------------- tran.x ------------------------
 --------------------------------------------------- 
 starting tdmrunfile.x > tdmrunfilels at Sat May 28 15:06:35 EDT 2022

 -------------------- tdmrunfile.x ------------------------
 --------------------------------------------------- 
 starting pymolcas molcas.input.alaska > molcas.output.alaska  at Sat May 28 15:06:35 EDT 2022

Generating link ln -s ./molcas.OrdInt ORDINT 
 -------------------- alaska ------------------------
 --------------------------------------------------- 
 
 === Non-adiabatic coupling for DRT 2 STATE 2 and DRT 2 STATE 4 === 
  -2.290051E-03   3.563293E-01  -9.024834E-08
  -9.403169E-02   7.275028E-01   1.415573E-07
   1.154789E+00  -3.250439E+00  -2.795195E-07
  -8.079654E-01  -3.278379E+00   1.666743E-07
   8.977377E-01   3.347871E+00   2.340338E-07
  -1.452486E+00   3.228607E+00  -2.103926E-07
   2.584512E-01  -1.211475E+00  -9.829219E-08
   4.874029E-02   5.090133E-02   1.019231E-09
  -7.701926E-03   2.961529E-02   2.589135E-08
   5.165242E-02  -4.434037E-02   4.179193E-08
  -5.153999E-02  -4.606686E-02  -2.026467E-08
   3.156719E-02   3.138812E-02  -8.994266E-09
  -2.931288E-02   3.886430E-02   6.870638E-08
   2.813800E-03   1.918345E-02   2.803392E-08
===================================

 Norm of the nonadiabatic coupling vector: 
 |h(drt2.state2,drt2.state4)|= 7.07579313236936 

 Cross-check of the non-adiabatic coupling term:
  DeltaE= -0.0231907262000277

  <L>*dE form CIGRD   :    0.0000000000    -0.0000000000     0.0158958050
  <L>*dE form NADCOUPL:   -0.0000000012     0.0000000031    -0.0019759991
 -------------------------------------------------------------------------
  Difference          :    0.0000000012    -0.0000000031     0.0178718041

 NOTE: This test is meaningless at a point of conical intersection!


 -------- NAD. COUPLING for DRT:2 STATE:3 AND DRT:2 STATE:4 --------
opening file =ciudgls.drt2.sp
opening file =ciudgls.drt2.sp
extracted: energy1= -285.8620446193   energy2=-285.8466211183   deltae=-0.0154235009999866
starting cigrd.x -m 200000 at Sat May 28 15:07:41 EDT 2022

 -------------------- cigrd.x ------------------------
 Total energy (ciudg) :     0.000000000731 
  Effective energy     :    -0.000000003599 
  Delta E              :     0.000000004330 
  --------------------------------------------------- 
 starting tran.x -m 200000  at Sat May 28 15:14:46 EDT 2022

 -------------------- tran.x ------------------------
 --------------------------------------------------- 
  adding keyword NONUC to alaska input
starting pymolcas molcas.input.alaska > molcas.output.alaska  at Sat May 28 15:19:48 EDT 2022

Generating link ln -s ./molcas.OrdInt ORDINT 
 -------------------- alaska ------------------------
 --------------------------------------------------- 
 cartesian gradient by alaska (MOLCAS)

 Calculating the Dx(r,s) term of D[CSF] nonadiabatic coupling term.
dxcalc: INPUT LINE SEPARATOR 
 
starting tran.x -m 200000  at Sat May 28 15:20:54 EDT 2022

 -------------------- tran.x ------------------------
 --------------------------------------------------- 
 starting tdmrunfile.x > tdmrunfilels at Sat May 28 15:20:54 EDT 2022

 -------------------- tdmrunfile.x ------------------------
 --------------------------------------------------- 
 starting pymolcas molcas.input.alaska > molcas.output.alaska  at Sat May 28 15:20:54 EDT 2022

Generating link ln -s ./molcas.OrdInt ORDINT 
 -------------------- alaska ------------------------
 --------------------------------------------------- 
 
 === Non-adiabatic coupling for DRT 2 STATE 3 and DRT 2 STATE 4 === 
   3.963512E-02   1.319442E-01   2.394495E-07
   1.021479E-01   1.290196E-01  -3.928473E-08
  -3.035141E-01  -6.881273E-01  -2.732880E-08
  -7.517174E-01  -7.316977E-01  -2.861681E-07
   1.147995E+00   5.675040E-01  -4.487537E-07
   7.357371E-01   8.193548E-01   3.450950E-07
  -9.556225E-01  -2.703159E-01   3.413637E-07
   1.505435E-02   5.428360E-02  -7.683202E-09
  -6.893292E-03  -1.106117E-02  -2.478815E-08
   4.190430E-02   2.448571E-02  -1.133608E-08
   2.049233E-02  -3.710508E-02  -4.894690E-08
  -2.028366E-02   5.155696E-02   1.647297E-08
  -3.014826E-02  -4.157246E-02  -8.984256E-08
  -3.855367E-02   2.020375E-03   4.174461E-08
===================================

 Norm of the nonadiabatic coupling vector: 
 |h(drt2.state3,drt2.state4)|= 2.35918265518444 

 Cross-check of the non-adiabatic coupling term:
  DeltaE= -0.0154235009999866

  <L>*dE form CIGRD   :    0.0000000000    -0.0000000000     0.0105718537
  <L>*dE form NADCOUPL:   -0.0000000068     0.0000000082     0.0105728150
 -------------------------------------------------------------------------
  Difference          :    0.0000000068    -0.0000000082    -0.0000009613

 NOTE: This test is meaningless at a point of conical intersection!



============== timings ===================

   unik.gets.x    
   mcdrt.x        
   mcuft.x        
 * mcscf.x          walltime    2:28:31
   mcpc.x         
   mcpc.x         
   mcpc.x         
   mcpc.x         
   exptvl.x       
   exptvl.x       
   exptvl.x       
   exptvl.x       
   cidrt.x        
   cidrt.x        
 * tran.x           walltime    0:11:04
 * pciudg.x -m 19000   walltime   14:53:18
 * cipc.x           walltime    0:00:14
 * pciudg.x -m 19000   walltime   34:52:51
 * cipc.x           walltime    0:00:20
 * reindex.x        walltime    0:04:02
 * pciudg.x -m 19000   walltime    1:49:28
 * transci.x        walltime    0:02:23
 * transci.x        walltime    0:02:15
 * transci.x        walltime    0:02:15
 * transci.x        walltime    0:02:13
 * transci.x        walltime    0:02:12
 * transci.x        walltime    0:02:18
 * transci.x        walltime    0:04:10
 * transci.x        walltime    0:04:12
 * transci.x        walltime    0:04:06
 * transci.x        walltime    0:04:03
 * transci.x        walltime    0:04:13
 * transci.x        walltime    0:04:02
   exptvl.x       
   exptvl.x       
   exptvl.x       
   exptvl.x       
   exptvl.x       
   exptvl.x       
   exptvl.x       
   exptvl.x       
   mo_convert.x   
   mo_convert.x   
   mo_convert.x   
   mo_convert.x   
   mo_convert.x   
   mo_convert.x   
   mo_convert.x   
   mo_convert.x   
   mo_convert.x   
   mo_convert.x   
   mo_convert.x   
   mo_convert.x   
   mo_convert.x   
   mo_convert.x   
 * cidrt.x          walltime    0:00:06
 * tran.x           walltime    0:05:48
 * cigrd.x          walltime    0:06:47
 * tran.x           walltime    0:05:15
 * cigrd.x          walltime    0:07:50
 * tran.x           walltime    0:05:17
 * cigrd.x          walltime    0:08:00
 * tran.x           walltime    0:05:18
 * cigrd.x          walltime    0:07:09
 * tran.x           walltime    0:05:17
 * cigrd.x          walltime    0:06:53
 * tran.x           walltime    0:05:16
 * cigrd.x          walltime    0:07:55
 * tran.x           walltime    0:05:21
 * cigrd.x          walltime    0:07:27
 * tran.x           walltime    0:05:16
 * cigrd.x          walltime    0:06:47
 * tran.x           walltime    0:05:20
 * cigrd.x          walltime    0:07:17
 * tran.x           walltime    0:05:13
   tran.x         
   tdmrunfile.x   
 * cigrd.x          walltime    0:06:45
 * tran.x           walltime    0:05:09
   tran.x         
   tdmrunfile.x   
 * cigrd.x          walltime    0:07:03
 * tran.x           walltime    0:05:12
   tran.x         
   tdmrunfile.x   
 * cigrd.x          walltime    0:07:08
 * tran.x           walltime    0:05:04
   tran.x         
   tdmrunfile.x   
 * cigrd.x          walltime    0:06:36
 * tran.x           walltime    0:04:59
   tran.x         
   tdmrunfile.x   
 * cigrd.x          walltime    0:07:40
 * tran.x           walltime    0:05:06
   tran.x         
   tdmrunfile.x   
 * cigrd.x          walltime    0:07:22
 * tran.x           walltime    0:05:09
   tran.x         
   tdmrunfile.x   
 * cigrd.x          walltime    0:07:00
 * tran.x           walltime    0:05:03
   tran.x         
   tdmrunfile.x   
 * cigrd.x          walltime    0:06:49
 * tran.x           walltime    0:05:11
   tran.x         
   tdmrunfile.x   
 * cigrd.x          walltime    0:07:04
 * tran.x           walltime    0:05:15
   tran.x         
   tdmrunfile.x   
 * cigrd.x          walltime    0:07:00
 * tran.x           walltime    0:05:08
   tran.x         
   tdmrunfile.x   
 * cigrd.x          walltime    0:07:04
 * tran.x           walltime    0:05:01
   tran.x         
   tdmrunfile.x   

==========================================

