[Molden Format]
[Atoms] AU
  N     1    7     0.0000000000   -4.2907334100    0.0000000000        
  C     2    6     0.0000000000   -1.7772236300    0.0000000000        
  C     3    6    -2.3389203600   -0.4111016300    0.0000000000        
  C     4    6     2.3389203600   -0.4111016300    0.0000000000        
  C     5    6    -2.2998668500    2.1639215300    0.0000000000        
  C     6    6     2.2998668500    2.1639215300    0.0000000000        
  C     7    6     0.0000000000    3.4755251800    0.0000000000        
  H     8    1    -2.8949410900   -6.0766690900    0.0000000000        
  H     9    1     1.9299607200   -5.4813572000    0.0000000000        
  H    10    1    -4.0745407300   -1.4447408500    0.0000000000        
  H    11    1     4.0745407300   -1.4447408500    0.0000000000        
  H    12    1    -4.0420632100    3.1963889500    0.0000000000        
  H    13    1     4.0420632100    3.1963889500    0.0000000000        
  H    14    1     0.0000000000    5.5020335600    0.0000000000        
[5D]
[7F]
[GTO]
  1  0
   s    12 1.00
  0.114200D+05  0.172695D-04
  0.171200D+04  0.134411D-03
  0.389300D+03  0.694561D-03
  0.110000D+03  0.278531D-02
  0.355700D+02  0.863457D-02
  0.125400D+02  0.199805D-01
  0.464400D+01  0.262908D-01
  0.129300D+01 -0.243845D-01
  0.511800D+00 -0.924934D-01
  0.178700D+00 -0.339683D+00
  0.246240D-01  0.345111D+00
  0.112530D-01  0.752750D+00
   s    10 1.00
  0.114200D+05  0.523000D-03
  0.171200D+04  0.404500D-02
  0.389300D+03  0.207750D-01
  0.110000D+03  0.807269D-01
  0.355700D+02  0.233074D+00
  0.125400D+02  0.433501D+00
  0.464400D+01  0.347472D+00
  0.129300D+01  0.412620D-01
  0.511800D+00 -0.850799D-02
  0.178700D+00  0.238400D-02
   s    10 1.00
  0.114200D+05 -0.115000D-03
  0.171200D+04 -0.895000D-03
  0.389300D+03 -0.462400D-02
  0.110000D+03 -0.185280D-01
  0.355700D+02 -0.573390D-01
  0.125400D+02 -0.132076D+00
  0.464400D+01 -0.172510D+00
  0.129300D+01  0.151814D+00
  0.511800D+00  0.599944D+00
  0.178700D+00  0.387462D+00
   s     1 1.00
  0.129300D+01  0.100000D+01
   s     1 1.00
  0.178700D+00  0.100000D+01
   p     5 1.00
  0.266300D+02  0.146700D-01
  0.594800D+01  0.917640D-01
  0.174200D+01  0.298683D+00
  0.555000D+00  0.498487D+00
  0.172500D+00  0.337023D+00
   p     1 1.00
  0.174200D+01  0.100000D+01
   p     1 1.00
  0.555000D+00  0.100000D+01
   d     1 1.00
  0.165400D+01  0.100000D+01
   d     1 1.00
  0.469000D+00  0.100000D+01
   f     1 1.00
  0.109300D+01  0.100000D+01
  
  2  0
   s    10 1.00
  0.823600D+04  0.531000D-03
  0.123500D+04  0.410800D-02
  0.280800D+03  0.210870D-01
  0.792700D+02  0.818530D-01
  0.255900D+02  0.234817D+00
  0.899700D+01  0.434401D+00
  0.331900D+01  0.346129D+00
  0.905900D+00  0.393780D-01
  0.364300D+00 -0.898300D-02
  0.128500D+00  0.238500D-02
   s    10 1.00
  0.823600D+04 -0.113000D-03
  0.123500D+04 -0.878000D-03
  0.280800D+03 -0.454000D-02
  0.792700D+02 -0.181330D-01
  0.255900D+02 -0.557600D-01
  0.899700D+01 -0.126895D+00
  0.331900D+01 -0.170352D+00
  0.905900D+00  0.140382D+00
  0.364300D+00  0.598684D+00
  0.128500D+00  0.395389D+00
   s     1 1.00
  0.905900D+00  0.100000D+01
   s     1 1.00
  0.364300D+00  0.100000D+01
   p     5 1.00
  0.187100D+02  0.140310D-01
  0.413300D+01  0.868660D-01
  0.120000D+01  0.290216D+00
  0.382700D+00  0.501008D+00
  0.120900D+00  0.343406D+00
   p     1 1.00
  0.382700D+00  0.100000D+01
   p     1 1.00
  0.120900D+00  0.100000D+01
   d     1 1.00
  0.109700D+01  0.100000D+01
   d     1 1.00
  0.318000D+00  0.100000D+01
   f     1 1.00
  0.761000D+00  0.100000D+01
  
  3  0
   s    10 1.00
  0.823600D+04  0.531000D-03
  0.123500D+04  0.410800D-02
  0.280800D+03  0.210870D-01
  0.792700D+02  0.818530D-01
  0.255900D+02  0.234817D+00
  0.899700D+01  0.434401D+00
  0.331900D+01  0.346129D+00
  0.905900D+00  0.393780D-01
  0.364300D+00 -0.898300D-02
  0.128500D+00  0.238500D-02
   s    10 1.00
  0.823600D+04 -0.113000D-03
  0.123500D+04 -0.878000D-03
  0.280800D+03 -0.454000D-02
  0.792700D+02 -0.181330D-01
  0.255900D+02 -0.557600D-01
  0.899700D+01 -0.126895D+00
  0.331900D+01 -0.170352D+00
  0.905900D+00  0.140382D+00
  0.364300D+00  0.598684D+00
  0.128500D+00  0.395389D+00
   s     1 1.00
  0.905900D+00  0.100000D+01
   s     1 1.00
  0.364300D+00  0.100000D+01
   p     5 1.00
  0.187100D+02  0.140310D-01
  0.413300D+01  0.868660D-01
  0.120000D+01  0.290216D+00
  0.382700D+00  0.501008D+00
  0.120900D+00  0.343406D+00
   p     1 1.00
  0.382700D+00  0.100000D+01
   p     1 1.00
  0.120900D+00  0.100000D+01
   d     1 1.00
  0.109700D+01  0.100000D+01
   d     1 1.00
  0.318000D+00  0.100000D+01
   f     1 1.00
  0.761000D+00  0.100000D+01
  
  4  0
   s    10 1.00
  0.823600D+04  0.531000D-03
  0.123500D+04  0.410800D-02
  0.280800D+03  0.210870D-01
  0.792700D+02  0.818530D-01
  0.255900D+02  0.234817D+00
  0.899700D+01  0.434401D+00
  0.331900D+01  0.346129D+00
  0.905900D+00  0.393780D-01
  0.364300D+00 -0.898300D-02
  0.128500D+00  0.238500D-02
   s    10 1.00
  0.823600D+04 -0.113000D-03
  0.123500D+04 -0.878000D-03
  0.280800D+03 -0.454000D-02
  0.792700D+02 -0.181330D-01
  0.255900D+02 -0.557600D-01
  0.899700D+01 -0.126895D+00
  0.331900D+01 -0.170352D+00
  0.905900D+00  0.140382D+00
  0.364300D+00  0.598684D+00
  0.128500D+00  0.395389D+00
   s     1 1.00
  0.905900D+00  0.100000D+01
   s     1 1.00
  0.364300D+00  0.100000D+01
   p     5 1.00
  0.187100D+02  0.140310D-01
  0.413300D+01  0.868660D-01
  0.120000D+01  0.290216D+00
  0.382700D+00  0.501008D+00
  0.120900D+00  0.343406D+00
   p     1 1.00
  0.382700D+00  0.100000D+01
   p     1 1.00
  0.120900D+00  0.100000D+01
   d     1 1.00
  0.109700D+01  0.100000D+01
   d     1 1.00
  0.318000D+00  0.100000D+01
   f     1 1.00
  0.761000D+00  0.100000D+01
  
  5  0
   s    10 1.00
  0.823600D+04  0.531000D-03
  0.123500D+04  0.410800D-02
  0.280800D+03  0.210870D-01
  0.792700D+02  0.818530D-01
  0.255900D+02  0.234817D+00
  0.899700D+01  0.434401D+00
  0.331900D+01  0.346129D+00
  0.905900D+00  0.393780D-01
  0.364300D+00 -0.898300D-02
  0.128500D+00  0.238500D-02
   s    10 1.00
  0.823600D+04 -0.113000D-03
  0.123500D+04 -0.878000D-03
  0.280800D+03 -0.454000D-02
  0.792700D+02 -0.181330D-01
  0.255900D+02 -0.557600D-01
  0.899700D+01 -0.126895D+00
  0.331900D+01 -0.170352D+00
  0.905900D+00  0.140382D+00
  0.364300D+00  0.598684D+00
  0.128500D+00  0.395389D+00
   s     1 1.00
  0.905900D+00  0.100000D+01
   s     1 1.00
  0.364300D+00  0.100000D+01
   p     5 1.00
  0.187100D+02  0.140310D-01
  0.413300D+01  0.868660D-01
  0.120000D+01  0.290216D+00
  0.382700D+00  0.501008D+00
  0.120900D+00  0.343406D+00
   p     1 1.00
  0.382700D+00  0.100000D+01
   p     1 1.00
  0.120900D+00  0.100000D+01
   d     1 1.00
  0.109700D+01  0.100000D+01
   d     1 1.00
  0.318000D+00  0.100000D+01
   f     1 1.00
  0.761000D+00  0.100000D+01
  
  6  0
   s    10 1.00
  0.823600D+04  0.531000D-03
  0.123500D+04  0.410800D-02
  0.280800D+03  0.210870D-01
  0.792700D+02  0.818530D-01
  0.255900D+02  0.234817D+00
  0.899700D+01  0.434401D+00
  0.331900D+01  0.346129D+00
  0.905900D+00  0.393780D-01
  0.364300D+00 -0.898300D-02
  0.128500D+00  0.238500D-02
   s    10 1.00
  0.823600D+04 -0.113000D-03
  0.123500D+04 -0.878000D-03
  0.280800D+03 -0.454000D-02
  0.792700D+02 -0.181330D-01
  0.255900D+02 -0.557600D-01
  0.899700D+01 -0.126895D+00
  0.331900D+01 -0.170352D+00
  0.905900D+00  0.140382D+00
  0.364300D+00  0.598684D+00
  0.128500D+00  0.395389D+00
   s     1 1.00
  0.905900D+00  0.100000D+01
   s     1 1.00
  0.364300D+00  0.100000D+01
   p     5 1.00
  0.187100D+02  0.140310D-01
  0.413300D+01  0.868660D-01
  0.120000D+01  0.290216D+00
  0.382700D+00  0.501008D+00
  0.120900D+00  0.343406D+00
   p     1 1.00
  0.382700D+00  0.100000D+01
   p     1 1.00
  0.120900D+00  0.100000D+01
   d     1 1.00
  0.109700D+01  0.100000D+01
   d     1 1.00
  0.318000D+00  0.100000D+01
   f     1 1.00
  0.761000D+00  0.100000D+01
  
  7  0
   s    10 1.00
  0.823600D+04  0.531000D-03
  0.123500D+04  0.410800D-02
  0.280800D+03  0.210870D-01
  0.792700D+02  0.818530D-01
  0.255900D+02  0.234817D+00
  0.899700D+01  0.434401D+00
  0.331900D+01  0.346129D+00
  0.905900D+00  0.393780D-01
  0.364300D+00 -0.898300D-02
  0.128500D+00  0.238500D-02
   s    10 1.00
  0.823600D+04 -0.113000D-03
  0.123500D+04 -0.878000D-03
  0.280800D+03 -0.454000D-02
  0.792700D+02 -0.181330D-01
  0.255900D+02 -0.557600D-01
  0.899700D+01 -0.126895D+00
  0.331900D+01 -0.170352D+00
  0.905900D+00  0.140382D+00
  0.364300D+00  0.598684D+00
  0.128500D+00  0.395389D+00
   s     1 1.00
  0.905900D+00  0.100000D+01
   s     1 1.00
  0.364300D+00  0.100000D+01
   p     5 1.00
  0.187100D+02  0.140310D-01
  0.413300D+01  0.868660D-01
  0.120000D+01  0.290216D+00
  0.382700D+00  0.501008D+00
  0.120900D+00  0.343406D+00
   p     1 1.00
  0.382700D+00  0.100000D+01
   p     1 1.00
  0.120900D+00  0.100000D+01
   d     1 1.00
  0.109700D+01  0.100000D+01
   d     1 1.00
  0.318000D+00  0.100000D+01
   f     1 1.00
  0.761000D+00  0.100000D+01
  
  8  0
   s     4 1.00
  0.130100D+02  0.196850D-01
  0.196200D+01  0.137977D+00
  0.444600D+00  0.478148D+00
  0.122000D+00  0.501240D+00
   s     1 1.00
  0.122000D+00  0.100000D+01
   p     1 1.00
  0.727000D+00  0.100000D+01
  
  9  0
   s     4 1.00
  0.130100D+02  0.196850D-01
  0.196200D+01  0.137977D+00
  0.444600D+00  0.478148D+00
  0.122000D+00  0.501240D+00
   s     1 1.00
  0.122000D+00  0.100000D+01
   p     1 1.00
  0.727000D+00  0.100000D+01
  
 10  0
   s     4 1.00
  0.130100D+02  0.196850D-01
  0.196200D+01  0.137977D+00
  0.444600D+00  0.478148D+00
  0.122000D+00  0.501240D+00
   s     1 1.00
  0.122000D+00  0.100000D+01
   p     1 1.00
  0.727000D+00  0.100000D+01
  
 11  0
   s     4 1.00
  0.130100D+02  0.196850D-01
  0.196200D+01  0.137977D+00
  0.444600D+00  0.478148D+00
  0.122000D+00  0.501240D+00
   s     1 1.00
  0.122000D+00  0.100000D+01
   p     1 1.00
  0.727000D+00  0.100000D+01
  
 12  0
   s     4 1.00
  0.130100D+02  0.196850D-01
  0.196200D+01  0.137977D+00
  0.444600D+00  0.478148D+00
  0.122000D+00  0.501240D+00
   s     1 1.00
  0.122000D+00  0.100000D+01
   p     1 1.00
  0.727000D+00  0.100000D+01
  
 13  0
   s     4 1.00
  0.130100D+02  0.196850D-01
  0.196200D+01  0.137977D+00
  0.444600D+00  0.478148D+00
  0.122000D+00  0.501240D+00
   s     1 1.00
  0.122000D+00  0.100000D+01
   p     1 1.00
  0.727000D+00  0.100000D+01
  
 14  0
   s     4 1.00
  0.130100D+02  0.196850D-01
  0.196200D+01  0.137977D+00
  0.444600D+00  0.478148D+00
  0.122000D+00  0.501240D+00
   s     1 1.00
  0.122000D+00  0.100000D+01
   p     1 1.00
  0.727000D+00  0.100000D+01
  
[MO]
 Sym= __1_A__
 Ene=   1.00000000000000     
 Spin= Alpha
 Occup=    1.00000000000000     
                     1  6.043970452744781E-005
                     2  0.998579427468545     
                     3  1.771029322327586E-003
                     4  1.490668793286215E-003
                     5  4.884302264330414E-003
                     6  3.432794410018774E-003
                     7  5.911966173465162E-003
                     8  1.688891585605285E-011
                     9 -7.652743125350386E-004
                    10 -4.541456561565807E-004
                    11 -1.025969007453262E-011
                    12 -2.473366015208289E-003
                    13 -1.610619250757100E-003
                    14 -1.193942397935685E-011
                    15 -7.111957835458964E-005
                    16  2.494259470781885E-012
                    17 -7.759453748439022E-013
                    18 -2.373912556591452E-004
                    19 -6.069387753365799E-005
                    20  1.687626626949689E-004
                    21 -1.686976367248164E-012
                    22 -1.503314373391233E-012
                    23 -2.066989898734584E-004
                    24  6.157522854548900E-004
                    25  2.245675762226821E-013
                    26  9.385080630564150E-006
                    27 -5.521492364115532E-005
                    28  5.391371723642662E-013
                    29  3.839959125168364E-013
                    30  3.314762556818258E-005
                    31 -1.049488591679455E-004
                    32 -3.146375594570014E-004
                    33  1.213825026163719E-003
                    34  2.557119017779322E-004
                    35 -2.383648409141405E-004
                    36 -1.802597542932917E-004
                    37 -4.495877907328068E-003
                    38  1.072631891755048E-011
                    39  5.793247640202099E-004
                    40  1.587380843938357E-004
                    41 -9.961243903384491E-012
                    42 -2.479792771791332E-003
                    43  5.272256808526462E-003
                    44 -4.589747587834101E-012
                    45 -2.436326261847610E-005
                    46 -2.522123617106642E-012
                    47  3.872516123139753E-012
                    48 -2.325445759879412E-004
                    49 -6.168044224967354E-006
                    50 -2.575193725993925E-004
                    51  3.555840516171556E-012
                    52 -7.002526471962033E-012
                    53 -8.223671678536308E-006
                    54  9.045767813068047E-004
                    55 -4.312641984688231E-013
                    56 -1.401327728530969E-005
                    57 -4.701827987110354E-005
                    58  3.387087045287456E-012
                    59  1.828473359841613E-012
                    60 -2.008523623412300E-005
                    61 -1.128716196547066E-004
                    62 -5.235608136538012E-004
                    63 -2.346309479216618E-003
                    64 -1.056231704470989E-004
                    65  2.266406283109453E-003
                    66 -6.778106890654279E-004
                    67  4.764641237491774E-004
                    68 -3.227269622216320E-012
                    69  5.193715746798299E-004
                    70  7.907437688183025E-004
                    71  4.964571655977158E-012
                    72 -1.756908933809582E-003
                    73  8.238292510909625E-004
                    74  5.375897532260757E-012
                    75 -4.330698363461425E-005
                    76 -2.789941295306467E-012
                    77 -5.050910852333382E-012
                    78 -8.606162113245375E-005
                    79 -3.339796610145276E-005
                    80 -1.586928715231502E-004
                    81  4.247196364521628E-012
                    82  5.190952946430478E-012
                    83  1.129903726653759E-004
                    84  7.856071190504562E-005
                    85  5.705836704981953E-013
                    86  8.087064120130079E-006
                    87 -4.561155033043107E-005
                    88 -1.013890979589757E-012
                    89  1.222459601659467E-012
                    90 -1.060982053584246E-005
                    91 -1.583890827857226E-004
                    92 -9.865785145436352E-005
                    93 -8.513674255465535E-004
                    94  2.236594297390465E-004
                    95 -4.702392514606757E-004
                    96  5.132115699747799E-004
                    97  6.202225520067201E-004
                    98 -7.580431935599194E-012
                    99  4.760149137554470E-004
                   100  2.498859275591368E-004
                   101  7.812105895391311E-012
                   102  4.569923147741963E-004
                   103 -1.540856833938672E-003
                   104 -1.741615831843244E-012
                   105 -1.823187020858999E-006
                   106  9.392390745888373E-013
                   107 -5.437133951030755E-013
                   108 -5.832888629056318E-005
                   109 -2.220445463682490E-005
                   110  1.563198076967327E-004
                   111 -3.738539804403453E-012
                   112  1.978740848852127E-012
                   113 -1.578593349889039E-004
                   114 -3.434225389876946E-005
                   115  2.464470643748408E-012
                   116 -2.586252922551596E-005
                   117 -3.047844433638268E-005
                   118 -1.526162380950069E-013
                   119 -1.892606556497579E-012
                   120  1.646913332277081E-005
                   121 -1.534511191683939E-005
                   122 -2.713049411684352E-004
                   123 -5.604409299365122E-004
                   124  1.750560093766541E-004
                   125  4.038047968921918E-004
                   126 -1.305169013815158E-005
                   127 -5.388876261583364E-004
                   128  4.287970756969573E-012
                   129  2.037060180553185E-004
                   130  6.136005000831529E-004
                   131 -3.147419690674899E-012
                   132  3.933775208196128E-004
                   133  2.111209968106886E-003
                   134 -5.379974588169259E-012
                   135  1.122603849324221E-005
                   136 -1.327288911429252E-012
                   137  3.334623299830269E-013
                   138  4.477967297525676E-005
                   139  7.568263067055993E-007
                   140  2.129658891602394E-004
                   141 -2.980962720926129E-012
                   142  1.284815636403219E-012
                   143  3.669604536891944E-004
                   144  2.632332881186978E-004
                   145  3.858594967770345E-012
                   146 -8.520824299737927E-006
                   147 -6.282924394310290E-005
                   148 -5.449460588006890E-013
                   149  2.056039076617575E-012
                   150 -2.410829465859177E-005
                   151 -5.089678408077962E-005
                   152 -1.729796462986001E-004
                   153 -2.725545722174321E-004
                   154  2.528478676566062E-005
                   155  3.966541952075312E-004
                   156 -2.966744416819944E-005
                   157 -4.444171951685942E-004
                   158  7.010649490050337E-012
                   159  2.409204046876210E-005
                   160  1.146175398195902E-005
                   161 -4.570205768524743E-012
                   162  7.390299269702910E-004
                   163 -3.991225734169470E-004
                   164  2.427065521208798E-012
                   165 -4.169758717492205E-006
                   166 -9.090795766534456E-013
                   167  1.769506988111491E-012
                   168 -1.117162174679700E-005
                   169  5.995300437300111E-006
                   170  4.438615633647656E-005
                   171  4.067947263880593E-012
                   172 -4.597154592720555E-013
                   173 -1.173360338585724E-005
                   174 -1.081945382400199E-005
                   175 -9.280344237721897E-013
                   176  4.675048382122537E-006
                   177 -4.159212077413258E-006
                   178 -1.947458384024026E-012
                   179 -3.154705367415332E-012
                   180 -2.718524541767924E-005
                   181 -3.728743696060880E-006
                   182 -1.658809375546093E-004
                   183 -4.752200607528934E-004
                   184  4.929385370022636E-005
                   185  2.387487013897652E-004
                   186 -4.118653759186385E-005
                   187 -5.244925987498943E-005
                   188  2.313577634633353E-012
                   189  2.148017913059122E-004
                   190  6.478503379191620E-005
                   191 -7.584798071501804E-013
                   192  1.408104350667716E-003
                   193 -1.695941759298995E-004
                   194  2.138260562931219E-012
                   195 -1.078993309359414E-006
                   196  1.150246510206156E-012
                   197 -6.664170069499694E-014
                   198 -1.356949844614311E-005
                   199  8.104222188228698E-006
                   200  2.041418426500287E-005
                   201  7.991749963207168E-013
                   202 -6.772331236670696E-012
                   203 -8.432289302380906E-005
                   204 -1.954741732252150E-004
                   205 -2.820182693871531E-012
                   206 -5.659456587376670E-006
                   207 -5.883598928825923E-006
                   208  2.564840193011738E-012
                   209  3.508352731282368E-014
                   210  1.240713340917999E-005
                   211 -3.179942862733594E-006
                   212 -1.777529480500476E-006
                   213  1.088107635732652E-004
                   214  7.693286325965278E-005
                   215  9.079636384391035E-005
                   216  1.905465393425720E-012
                   217  2.418546281897409E-004
                   218 -8.935310671737242E-004
                   219 -3.882867999623930E-004
                   220  1.870143140843975E-004
                   221  2.576180914074534E-012
                   222 -4.445136918774057E-004
                   223 -6.174966930763043E-004
                   224  7.754039970869621E-006
                   225 -7.477064043671950E-005
                   226  1.924793841519308E-012
                   227 -2.093383467575361E-004
                   228 -4.959017689358659E-004
                   229 -4.492429360945541E-006
                   230 -9.819053024254535E-006
                   231 -9.064692780028169E-014
                   232 -5.652901961974179E-005
                   233 -5.750291961204258E-004
                   234  7.018700920780519E-006
                   235 -4.242869528146570E-006
                   236 -2.266219672909078E-012
                   237 -1.647169677107302E-004
                   238 -3.622631063072925E-004
                   239  9.149620365258895E-006
                   240  4.098939990736606E-006
                   241  1.779294456492364E-012
                   242  1.487479662997594E-005
                   243 -2.422030539567467E-005
                   244 -4.628742222533059E-007
                   245  2.189088076239089E-005
                   246  4.089321538050950E-012
 Sym= __2_A__
 Ene=   2.00000000000000     
 Spin= Alpha
 Occup=    1.00000000000000     
                     1 -5.169983323337786E-005
                     2 -3.379031749863341E-004
                     3  2.957879554689068E-003
                     4  1.563351009097534E-004
                     5  1.343173687990488E-003
                     6 -2.394182218131763E-004
                     7  2.903217939567095E-003
                     8  8.198423925235734E-012
                     9 -5.809210449412348E-005
                    10 -1.180010168095922E-004
                    11  3.642014325016605E-013
                    12  5.374498007395100E-005
                    13 -3.888610384550457E-004
                    14 -9.248493183751966E-012
                    15  3.173897824942766E-005
                    16  8.131609837764144E-013
                    17 -3.160268809616002E-013
                    18 -4.622351636947714E-005
                    19  1.323532929489125E-005
                    20 -1.135908359328928E-004
                    21  4.885070550750211E-013
                    22  8.054961638775610E-013
                    23  1.246593694901623E-004
                    24 -2.326104718538506E-005
                    25 -1.205376094627024E-012
                    26 -1.499346745288293E-005
                    27  8.737817576603243E-005
                    28  2.508291077523494E-012
                    29  5.224223812930193E-013
                    30 -1.263389637619814E-005
                    31  1.493157868109928E-004
                    32   1.00103422828806     
                    33  9.289545515846601E-003
                    34  2.715837295256073E-003
                    35 -8.143328275656513E-003
                    36 -1.268142714631230E-004
                    37 -3.600227250891008E-003
                    38  2.645439919443387E-011
                    39  1.583830293160422E-004
                    40  4.767547554758932E-004
                    41 -2.003787136569392E-011
                    42  1.633060129354318E-005
                    43  4.216911605976194E-003
                    44 -1.569145928072306E-011
                    45 -5.676814163626385E-004
                    46 -4.328994206581273E-013
                    47 -1.464514229441827E-012
                    48 -1.996254009989972E-004
                    49 -3.008597039122686E-006
                    50  5.491321048735782E-004
                    51  6.648199255539730E-013
                    52 -2.060353722628544E-012
                    53 -8.727559717264940E-004
                    54  4.737190171758265E-005
                    55 -1.553690953645350E-012
                    56 -6.013212515480504E-006
                    57  9.354234990041204E-005
                    58  1.558407725884941E-012
                    59  1.620415964139433E-012
                    60  5.769477466313358E-006
                    61  3.967401093131135E-004
                    62  9.070192780266776E-003
                    63 -2.089301727012289E-003
                    64 -2.991717187331872E-004
                    65  3.064665840887696E-003
                    66 -2.820583823282739E-005
                    67  1.284703008092823E-004
                    68 -8.114026093795715E-012
                    69  7.360044999603142E-004
                    70  4.909882308716704E-007
                    71  4.920104988210480E-012
                    72 -2.061684355697460E-003
                    73  8.303574563560195E-005
                    74  5.396103389043079E-012
                    75  2.642597643367919E-005
                    76 -4.153884703354284E-012
                    77 -1.840299204022434E-012
                    78 -2.246786514864732E-006
                    79  1.413303803199678E-006
                    80 -4.154709582333500E-004
                    81  3.499648355621882E-012
                    82  2.106695591304433E-013
                    83 -5.868513976482888E-004
                    84 -3.727972267744925E-004
                    85  1.055058524775381E-012
                    86  3.223815800711354E-005
                    87 -5.912522818754513E-005
                    88  7.654808334978622E-014
                    89  1.536595059858936E-012
                    90  5.050558820011566E-005
                    91  1.400768917848280E-004
                    92  9.699137038279019E-003
                    93 -2.059381577986491E-003
                    94 -2.784847168275976E-004
                    95  2.999281311488271E-003
                    96  1.404574675369866E-005
                    97  9.016540017690987E-005
                    98 -7.509651474387093E-012
                    99 -6.567642623978936E-004
                   100  6.021462375599414E-005
                   101  1.154921363046186E-011
                   102  2.019377201869899E-003
                   103  5.059148224860099E-005
                   104  8.499346740428604E-013
                   105  3.132427497243673E-005
                   106  2.135735278505856E-012
                   107  8.196074985331740E-013
                   108 -5.925196662924140E-006
                   109 -7.640597767369872E-006
                   110 -4.094576349927989E-004
                   111 -4.738807780633537E-012
                   112  8.902609379893576E-012
                   113 -6.076505133999248E-004
                   114  3.550664924713194E-004
                   115  4.545038827250801E-012
                   116 -3.267061492820769E-005
                   117 -6.019935207541874E-005
                   118 -2.571349652183084E-012
                   119 -3.352123940473575E-012
                   120 -4.896821670385785E-005
                   121  1.368613987275800E-004
                   122 -1.525380191684117E-004
                   123 -6.641692613364686E-004
                   124  2.264461115746604E-004
                   125 -1.134770286571016E-004
                   126 -1.510141377067708E-006
                   127 -3.506727426198916E-004
                   128  1.002177996758221E-012
                   129 -6.284179710642590E-005
                   130  5.436021780041649E-004
                   131 -2.988823631264964E-012
                   132  3.312279396760846E-004
                   133  7.681358382553794E-004
                   134  6.701366527549181E-012
                   135  1.903760267587393E-005
                   136 -1.555874259448877E-012
                   137 -2.845805487180642E-013
                   138  3.753781276007304E-006
                   139  5.296709424143773E-005
                   140  1.369597950004221E-004
                   141  1.967207855286292E-012
                   142  5.401840087256998E-012
                   143  2.437447908905770E-004
                   144 -1.813663977832109E-004
                   145 -4.146596638372590E-012
                   146  7.208967550521126E-006
                   147 -3.369667258661193E-005
                   148 -1.793004850666948E-012
                   149 -6.449561386579496E-013
                   150 -4.764255648132319E-005
                   151  2.859240316363456E-005
                   152 -1.386428417140674E-004
                   153 -6.721345630477404E-004
                   154  2.301050603736269E-004
                   155 -1.384302658893323E-004
                   156  1.210018144839143E-007
                   157 -3.400039617206399E-004
                   158 -5.291643222884144E-012
                   159  5.203520329393211E-005
                   160  5.632466440041350E-004