[Molden Format]
[Atoms] AU
  N     1    7    -0.0005437000   -4.2969785200    0.0000000000        
  C     2    6     0.0032892300   -1.7794205500    0.0000000000        
  C     3    6    -2.3359441400   -0.4122149200    0.0000000000        
  C     4    6     2.3411791900   -0.4081684900    0.0000000000        
  C     5    6    -2.2989415000    2.1634042600    0.0000000000        
  C     6    6     2.2990680600    2.1673544300    0.0000000000        
  C     7    6    -0.0011597500    3.4779837600    0.0000000000        
  H     8    1    -1.7819600900   -5.3682133600    0.0000000000        
  H     9    1     1.6375785000   -5.3397164800    0.0000000000        
  H    10    1    -4.0708253000   -1.4467305700    0.0000000000        
  H    11    1     4.0786953200   -1.4385474100    0.0000000000        
  H    12    1    -4.0429815400    3.1934101200    0.0000000000        
  H    13    1     4.0405149300    3.2013912400    0.0000000000        
  H    14    1    -0.0027505600    5.5045380000    0.0000000000        
[5D]
[7F]
[GTO]
  1  0
   s    12 1.00
  0.114200D+05  0.172695D-04
  0.171200D+04  0.134411D-03
  0.389300D+03  0.694561D-03
  0.110000D+03  0.278531D-02
  0.355700D+02  0.863457D-02
  0.125400D+02  0.199805D-01
  0.464400D+01  0.262908D-01
  0.129300D+01 -0.243845D-01
  0.511800D+00 -0.924934D-01
  0.178700D+00 -0.339683D+00
  0.246240D-01  0.345111D+00
  0.112530D-01  0.752750D+00
   s    10 1.00
  0.114200D+05  0.523000D-03
  0.171200D+04  0.404500D-02
  0.389300D+03  0.207750D-01
  0.110000D+03  0.807269D-01
  0.355700D+02  0.233074D+00
  0.125400D+02  0.433501D+00
  0.464400D+01  0.347472D+00
  0.129300D+01  0.412620D-01
  0.511800D+00 -0.850799D-02
  0.178700D+00  0.238400D-02
   s    10 1.00
  0.114200D+05 -0.115000D-03
  0.171200D+04 -0.895000D-03
  0.389300D+03 -0.462400D-02
  0.110000D+03 -0.185280D-01
  0.355700D+02 -0.573390D-01
  0.125400D+02 -0.132076D+00
  0.464400D+01 -0.172510D+00
  0.129300D+01  0.151814D+00
  0.511800D+00  0.599944D+00
  0.178700D+00  0.387462D+00
   s     1 1.00
  0.129300D+01  0.100000D+01
   s     1 1.00
  0.178700D+00  0.100000D+01
   p     5 1.00
  0.266300D+02  0.146700D-01
  0.594800D+01  0.917640D-01
  0.174200D+01  0.298683D+00
  0.555000D+00  0.498487D+00
  0.172500D+00  0.337023D+00
   p     1 1.00
  0.174200D+01  0.100000D+01
   p     1 1.00
  0.555000D+00  0.100000D+01
   d     1 1.00
  0.165400D+01  0.100000D+01
   d     1 1.00
  0.469000D+00  0.100000D+01
   f     1 1.00
  0.109300D+01  0.100000D+01
  
  2  0
   s    10 1.00
  0.823600D+04  0.531000D-03
  0.123500D+04  0.410800D-02
  0.280800D+03  0.210870D-01
  0.792700D+02  0.818530D-01
  0.255900D+02  0.234817D+00
  0.899700D+01  0.434401D+00
  0.331900D+01  0.346129D+00
  0.905900D+00  0.393780D-01
  0.364300D+00 -0.898300D-02
  0.128500D+00  0.238500D-02
   s    10 1.00
  0.823600D+04 -0.113000D-03
  0.123500D+04 -0.878000D-03
  0.280800D+03 -0.454000D-02
  0.792700D+02 -0.181330D-01
  0.255900D+02 -0.557600D-01
  0.899700D+01 -0.126895D+00
  0.331900D+01 -0.170352D+00
  0.905900D+00  0.140382D+00
  0.364300D+00  0.598684D+00
  0.128500D+00  0.395389D+00
   s     1 1.00
  0.905900D+00  0.100000D+01
   s     1 1.00
  0.364300D+00  0.100000D+01
   p     5 1.00
  0.187100D+02  0.140310D-01
  0.413300D+01  0.868660D-01
  0.120000D+01  0.290216D+00
  0.382700D+00  0.501008D+00
  0.120900D+00  0.343406D+00
   p     1 1.00
  0.382700D+00  0.100000D+01
   p     1 1.00
  0.120900D+00  0.100000D+01
   d     1 1.00
  0.109700D+01  0.100000D+01
   d     1 1.00
  0.318000D+00  0.100000D+01
   f     1 1.00
  0.761000D+00  0.100000D+01
  
  3  0
   s    10 1.00
  0.823600D+04  0.531000D-03
  0.123500D+04  0.410800D-02
  0.280800D+03  0.210870D-01
  0.792700D+02  0.818530D-01
  0.255900D+02  0.234817D+00
  0.899700D+01  0.434401D+00
  0.331900D+01  0.346129D+00
  0.905900D+00  0.393780D-01
  0.364300D+00 -0.898300D-02
  0.128500D+00  0.238500D-02
   s    10 1.00
  0.823600D+04 -0.113000D-03
  0.123500D+04 -0.878000D-03
  0.280800D+03 -0.454000D-02
  0.792700D+02 -0.181330D-01
  0.255900D+02 -0.557600D-01
  0.899700D+01 -0.126895D+00
  0.331900D+01 -0.170352D+00
  0.905900D+00  0.140382D+00
  0.364300D+00  0.598684D+00
  0.128500D+00  0.395389D+00
   s     1 1.00
  0.905900D+00  0.100000D+01
   s     1 1.00
  0.364300D+00  0.100000D+01
   p     5 1.00
  0.187100D+02  0.140310D-01
  0.413300D+01  0.868660D-01
  0.120000D+01  0.290216D+00
  0.382700D+00  0.501008D+00
  0.120900D+00  0.343406D+00
   p     1 1.00
  0.382700D+00  0.100000D+01
   p     1 1.00
  0.120900D+00  0.100000D+01
   d     1 1.00
  0.109700D+01  0.100000D+01
   d     1 1.00
  0.318000D+00  0.100000D+01
   f     1 1.00
  0.761000D+00  0.100000D+01
  
  4  0
   s    10 1.00
  0.823600D+04  0.531000D-03
  0.123500D+04  0.410800D-02
  0.280800D+03  0.210870D-01
  0.792700D+02  0.818530D-01
  0.255900D+02  0.234817D+00
  0.899700D+01  0.434401D+00
  0.331900D+01  0.346129D+00
  0.905900D+00  0.393780D-01
  0.364300D+00 -0.898300D-02
  0.128500D+00  0.238500D-02
   s    10 1.00
  0.823600D+04 -0.113000D-03
  0.123500D+04 -0.878000D-03
  0.280800D+03 -0.454000D-02
  0.792700D+02 -0.181330D-01
  0.255900D+02 -0.557600D-01
  0.899700D+01 -0.126895D+00
  0.331900D+01 -0.170352D+00
  0.905900D+00  0.140382D+00
  0.364300D+00  0.598684D+00
  0.128500D+00  0.395389D+00
   s     1 1.00
  0.905900D+00  0.100000D+01
   s     1 1.00
  0.364300D+00  0.100000D+01
   p     5 1.00
  0.187100D+02  0.140310D-01
  0.413300D+01  0.868660D-01
  0.120000D+01  0.290216D+00
  0.382700D+00  0.501008D+00
  0.120900D+00  0.343406D+00
   p     1 1.00
  0.382700D+00  0.100000D+01
   p     1 1.00
  0.120900D+00  0.100000D+01
   d     1 1.00
  0.109700D+01  0.100000D+01
   d     1 1.00
  0.318000D+00  0.100000D+01
   f     1 1.00
  0.761000D+00  0.100000D+01
  
  5  0
   s    10 1.00
  0.823600D+04  0.531000D-03
  0.123500D+04  0.410800D-02
  0.280800D+03  0.210870D-01
  0.792700D+02  0.818530D-01
  0.255900D+02  0.234817D+00
  0.899700D+01  0.434401D+00
  0.331900D+01  0.346129D+00
  0.905900D+00  0.393780D-01
  0.364300D+00 -0.898300D-02
  0.128500D+00  0.238500D-02
   s    10 1.00
  0.823600D+04 -0.113000D-03
  0.123500D+04 -0.878000D-03
  0.280800D+03 -0.454000D-02
  0.792700D+02 -0.181330D-01
  0.255900D+02 -0.557600D-01
  0.899700D+01 -0.126895D+00
  0.331900D+01 -0.170352D+00
  0.905900D+00  0.140382D+00
  0.364300D+00  0.598684D+00
  0.128500D+00  0.395389D+00
   s     1 1.00
  0.905900D+00  0.100000D+01
   s     1 1.00
  0.364300D+00  0.100000D+01
   p     5 1.00
  0.187100D+02  0.140310D-01
  0.413300D+01  0.868660D-01
  0.120000D+01  0.290216D+00
  0.382700D+00  0.501008D+00
  0.120900D+00  0.343406D+00
   p     1 1.00
  0.382700D+00  0.100000D+01
   p     1 1.00
  0.120900D+00  0.100000D+01
   d     1 1.00
  0.109700D+01  0.100000D+01
   d     1 1.00
  0.318000D+00  0.100000D+01
   f     1 1.00
  0.761000D+00  0.100000D+01
  
  6  0
   s    10 1.00
  0.823600D+04  0.531000D-03
  0.123500D+04  0.410800D-02
  0.280800D+03  0.210870D-01
  0.792700D+02  0.818530D-01
  0.255900D+02  0.234817D+00
  0.899700D+01  0.434401D+00
  0.331900D+01  0.346129D+00
  0.905900D+00  0.393780D-01
  0.364300D+00 -0.898300D-02
  0.128500D+00  0.238500D-02
   s    10 1.00
  0.823600D+04 -0.113000D-03
  0.123500D+04 -0.878000D-03
  0.280800D+03 -0.454000D-02
  0.792700D+02 -0.181330D-01
  0.255900D+02 -0.557600D-01
  0.899700D+01 -0.126895D+00
  0.331900D+01 -0.170352D+00
  0.905900D+00  0.140382D+00
  0.364300D+00  0.598684D+00
  0.128500D+00  0.395389D+00
   s     1 1.00
  0.905900D+00  0.100000D+01
   s     1 1.00
  0.364300D+00  0.100000D+01
   p     5 1.00
  0.187100D+02  0.140310D-01
  0.413300D+01  0.868660D-01
  0.120000D+01  0.290216D+00
  0.382700D+00  0.501008D+00
  0.120900D+00  0.343406D+00
   p     1 1.00
  0.382700D+00  0.100000D+01
   p     1 1.00
  0.120900D+00  0.100000D+01
   d     1 1.00
  0.109700D+01  0.100000D+01
   d     1 1.00
  0.318000D+00  0.100000D+01
   f     1 1.00
  0.761000D+00  0.100000D+01
  
  7  0
   s    10 1.00
  0.823600D+04  0.531000D-03
  0.123500D+04  0.410800D-02
  0.280800D+03  0.210870D-01
  0.792700D+02  0.818530D-01
  0.255900D+02  0.234817D+00
  0.899700D+01  0.434401D+00
  0.331900D+01  0.346129D+00
  0.905900D+00  0.393780D-01
  0.364300D+00 -0.898300D-02
  0.128500D+00  0.238500D-02
   s    10 1.00
  0.823600D+04 -0.113000D-03
  0.123500D+04 -0.878000D-03
  0.280800D+03 -0.454000D-02
  0.792700D+02 -0.181330D-01
  0.255900D+02 -0.557600D-01
  0.899700D+01 -0.126895D+00
  0.331900D+01 -0.170352D+00
  0.905900D+00  0.140382D+00
  0.364300D+00  0.598684D+00
  0.128500D+00  0.395389D+00
   s     1 1.00
  0.905900D+00  0.100000D+01
   s     1 1.00
  0.364300D+00  0.100000D+01
   p     5 1.00
  0.187100D+02  0.140310D-01
  0.413300D+01  0.868660D-01
  0.120000D+01  0.290216D+00
  0.382700D+00  0.501008D+00
  0.120900D+00  0.343406D+00
   p     1 1.00
  0.382700D+00  0.100000D+01
   p     1 1.00
  0.120900D+00  0.100000D+01
   d     1 1.00
  0.109700D+01  0.100000D+01
   d     1 1.00
  0.318000D+00  0.100000D+01
   f     1 1.00
  0.761000D+00  0.100000D+01
  
  8  0
   s     4 1.00
  0.130100D+02  0.196850D-01
  0.196200D+01  0.137977D+00
  0.444600D+00  0.478148D+00
  0.122000D+00  0.501240D+00
   s     1 1.00
  0.122000D+00  0.100000D+01
   p     1 1.00
  0.727000D+00  0.100000D+01
  
  9  0
   s     4 1.00
  0.130100D+02  0.196850D-01
  0.196200D+01  0.137977D+00
  0.444600D+00  0.478148D+00
  0.122000D+00  0.501240D+00
   s     1 1.00
  0.122000D+00  0.100000D+01
   p     1 1.00
  0.727000D+00  0.100000D+01
  
 10  0
   s     4 1.00
  0.130100D+02  0.196850D-01
  0.196200D+01  0.137977D+00
  0.444600D+00  0.478148D+00
  0.122000D+00  0.501240D+00
   s     1 1.00
  0.122000D+00  0.100000D+01
   p     1 1.00
  0.727000D+00  0.100000D+01
  
 11  0
   s     4 1.00
  0.130100D+02  0.196850D-01
  0.196200D+01  0.137977D+00
  0.444600D+00  0.478148D+00
  0.122000D+00  0.501240D+00
   s     1 1.00
  0.122000D+00  0.100000D+01
   p     1 1.00
  0.727000D+00  0.100000D+01
  
 12  0
   s     4 1.00
  0.130100D+02  0.196850D-01
  0.196200D+01  0.137977D+00
  0.444600D+00  0.478148D+00
  0.122000D+00  0.501240D+00
   s     1 1.00
  0.122000D+00  0.100000D+01
   p     1 1.00
  0.727000D+00  0.100000D+01
  
 13  0
   s     4 1.00
  0.130100D+02  0.196850D-01
  0.196200D+01  0.137977D+00
  0.444600D+00  0.478148D+00
  0.122000D+00  0.501240D+00
   s     1 1.00
  0.122000D+00  0.100000D+01
   p     1 1.00
  0.727000D+00  0.100000D+01
  
 14  0
   s     4 1.00
  0.130100D+02  0.196850D-01
  0.196200D+01  0.137977D+00
  0.444600D+00  0.478148D+00
  0.122000D+00  0.501240D+00
   s     1 1.00
  0.122000D+00  0.100000D+01
   p     1 1.00
  0.727000D+00  0.100000D+01
  
[MO]
 Sym= __1_A__
 Ene=  0.000000000000000E+000
 Spin= Alpha
 Occup=    2.00000000000000     
                     1  2.981067738757156E-005
                     2  0.998184683567960     
                     3  8.494415704051038E-003
                     4  1.958036195256574E-003
                     5  1.754113041604759E-003
                     6  1.502646546200370E-004
                     7  4.540559329068760E-003
                     8  0.000000000000000E+000
                     9  6.986861856009497E-005
                    10 -9.535752573037138E-005
                    11  0.000000000000000E+000
                    12  1.323284473054230E-005
                    13 -1.703455656505872E-004
                    14  0.000000000000000E+000
                    15 -2.030735534021292E-004
                    16  0.000000000000000E+000
                    17  0.000000000000000E+000
                    18 -1.913949652400414E-004
                    19 -3.963312307437723E-005
                    20  4.236340366214119E-004
                    21  0.000000000000000E+000
                    22  0.000000000000000E+000
                    23 -4.017827026180878E-004
                    24  1.142519729963378E-005
                    25  0.000000000000000E+000
                    26 -1.649071494180439E-005
                    27 -5.023069049911923E-005
                    28  0.000000000000000E+000
                    29  0.000000000000000E+000
                    30  4.446047474393573E-006
                    31 -1.698921545308440E-004
                    32 -3.553157653954386E-004
                    33  2.631839688851538E-003
                    34  1.321632605908943E-004
                    35 -2.154020064375671E-004
                    36 -1.473496149421806E-005
                    37 -6.862502190945243E-003
                    38  0.000000000000000E+000
                    39 -1.853932086439283E-005
                    40  3.076357669391712E-004
                    41  0.000000000000000E+000
                    42 -3.845643906086543E-005
                    43  4.479244392952554E-003
                    44  0.000000000000000E+000
                    45 -5.515094994099042E-005
                    46  0.000000000000000E+000
                    47  0.000000000000000E+000
                    48 -3.645884623984120E-004
                    49 -6.458800255739743E-006
                    50 -4.193418150849109E-004
                    51  0.000000000000000E+000
                    52  0.000000000000000E+000
                    53  1.334323824437488E-004
                    54  8.775204570585704E-006
                    55  0.000000000000000E+000
                    56  1.356546171872131E-006
                    57 -4.785602266395140E-006
                    58  0.000000000000000E+000
                    59  0.000000000000000E+000
                    60  3.005426784342229E-006
                    61 -1.240520568486138E-004
                    62 -2.049274251877772E-004
                    63 -1.594352036979499E-003
                    64  5.730373657261834E-005
                    65  5.540566374831661E-004
                    66 -8.037157697094636E-004
                    67  9.453634871371279E-004
                    68  0.000000000000000E+000
                    69 -3.135419537583969E-005
                    70  6.081473945882979E-004
                    71  0.000000000000000E+000
                    72 -6.490454528120195E-004
                    73 -1.079146886517565E-004
                    74  0.000000000000000E+000
                    75 -1.059992420452290E-005
                    76  0.000000000000000E+000
                    77  0.000000000000000E+000
                    78 -9.661306538552493E-005
                    79 -7.096948056544389E-006
                    80 -1.038084209077834E-005
                    81  0.000000000000000E+000
                    82  0.000000000000000E+000
                    83  2.463291174062074E-005
                    84  1.908362909834068E-004
                    85  0.000000000000000E+000
                    86  2.057747410879648E-005
                    87 -4.228220547256535E-005
                    88  0.000000000000000E+000
                    89  0.000000000000000E+000
                    90 -2.688876939864851E-005
                    91 -8.456061126101604E-005
                    92 -2.199119068902186E-004
                    93 -1.690557123881575E-003
                    94  5.739483057257626E-005
                    95  5.838409840224325E-004
                    96  8.328030537638728E-004
                    97  9.914429552379143E-004
                    98  0.000000000000000E+000
                    99  2.972355403703159E-005
                   100  6.083258114579567E-004
                   101  0.000000000000000E+000
                   102  5.679422082012300E-004
                   103 -2.258962833248820E-004
                   104  0.000000000000000E+000
                   105 -9.720919891546315E-006
                   106  0.000000000000000E+000
                   107  0.000000000000000E+000
                   108 -9.957543592236738E-005
                   109  6.400643766777979E-006
                   110 -2.112278102217137E-005
                   111  0.000000000000000E+000
                   112  0.000000000000000E+000
                   113  1.973824815300000E-005
                   114 -1.795951740522363E-004
                   115  0.000000000000000E+000
                   116 -1.876438627120119E-005
                   117 -4.036158970583717E-005
                   118  0.000000000000000E+000
                   119  0.000000000000000E+000
                   120  2.242459449134885E-005
                   121 -8.625705627351282E-005
                   122 -1.470476465630702E-004
                   123 -1.759929912350922E-005
                   124  1.072200191262126E-004
                   125  1.405446385118260E-004
                   126  3.755988827718064E-005
                   127 -7.605749322402613E-004
                   128  0.000000000000000E+000
                   129  3.470808068154845E-005
                   130  3.502795147771847E-004
                   131  0.000000000000000E+000
                   132 -1.420398385944697E-004
                   133  7.640050646395540E-004
                   134  0.000000000000000E+000
                   135  9.441696396908564E-006
                   136  0.000000000000000E+000
                   137  0.000000000000000E+000
                   138  1.456901946608017E-005
                   139  1.074269922361224E-006
                   140  1.049102079253909E-004
                   141  0.000000000000000E+000
                   142  0.000000000000000E+000
                   143  1.610318528523038E-004
                   144  1.659548360531403E-004
                   145  0.000000000000000E+000
                   146 -4.438008512648100E-006
                   147 -3.198044154689006E-005
                   148  0.000000000000000E+000
                   149  0.000000000000000E+000
                   150  1.435565009119730E-006
                   151 -2.429001167880520E-005
                   152 -1.484232112378871E-004
                   153 -7.181583265286019E-006
                   154  1.112974962867721E-004
                   155  1.291078060159006E-004
                   156 -3.806679553346553E-005
                   157 -7.779502013334061E-004
                   158  0.000000000000000E+000
                   159 -3.261746003532618E-005
                   160  3.504428467511476E-004
                   161  0.000000000000000E+000
                   162  2.169721552145288E-004
                   163  6.711890968723293E-004
                   164  0.000000000000000E+000
                   165  9.222144495507611E-006
                   166  0.000000000000000E+000
                   167  0.000000000000000E+000
                   168  1.528715792715117E-005
                   169 -1.933743844067895E-006
                   170  1.113144238641301E-004
                   171  0.000000000000000E+000
                   172  0.000000000000000E+000
                   173  1.553115199952096E-004
                   174 -1.610186095902722E-004
                   175  0.000000000000000E+000
                   176  3.845207442981353E-006
                   177 -3.190227625352284E-005
                   178  0.000000000000000E+000
                   179  0.000000000000000E+000
                   180 -6.122779310275676E-007
                   181 -2.561109569054898E-005
                   182 -1.185114821797738E-004
                   183 -3.163083234943643E-004
                   184  3.370491511324793E-005
                   185  1.389903748215103E-004
                   186 -5.547807164409973E-007
                   187 -4.196638706691105E-005
                   188  0.000000000000000E+000
                   189  7.693771160431996E-006
                   190  2.202338123529593E-005
                   191  0.000000000000000E+000
                   192  5.783684355193805E-005
                   193  3.344417127196946E-005
                   194  0.000000000000000E+000
                   195 -1.706253388804078E-006
                   196  0.000000000000000E+000
                   197  0.000000000000000E+000
                   198 -2.076437423012344E-005
                   199 -5.185407885831230E-007
                   200  1.675788157551876E-005
                   201  0.000000000000000E+000
                   202  0.000000000000000E+000
                   203 -7.677296812730798E-005
                   204 -4.772294923605695E-006
                   205  0.000000000000000E+000
                   206 -4.189225889398464E-007
                   207 -5.021616100264710E-006
                   208  0.000000000000000E+000
                   209  0.000000000000000E+000
                   210  4.049750927960487E-009
                   211 -9.466192990623850E-006
                   212  2.939952128984040E-003
                   213 -1.817896162254660E-003
                   214  4.617804030861849E-004
                   215  3.575728136370852E-004
                   216  0.000000000000000E+000
                   217  3.708899607994154E-003
                   218 -2.258794506957879E-003
                   219 -4.450055392700700E-004
                   220  3.778833824283900E-004
                   221  0.000000000000000E+000
                   222 -6.182351499961257E-004
                   223 -1.864950015453366E-004
                   224 -1.524842220876050E-005
                   225 -4.287055796925928E-005
                   226  0.000000000000000E+000
                   227 -6.351831168809585E-004
                   228 -1.501423687118854E-004
                   229  1.524105897860876E-005
                   230 -4.217267156272012E-005
                   231  0.000000000000000E+000
                   232 -2.209394962003179E-004
                   233 -4.113600848461716E-004
                   234 -5.237479248921130E-006
                   235  5.161249404242125E-006
                   236  0.000000000000000E+000
                   237 -2.245988862285806E-004
                   238 -4.205818391307475E-004
                   239  4.471140272798142E-006
                   240  3.963367100956352E-006
                   241  0.000000000000000E+000
                   242  6.643847414500934E-005
                   243 -1.215142695552518E-004
                   244 -1.881404867501601E-007
                   245  1.426887136780253E-005
                   246  0.000000000000000E+000
 Sym= __2_A__
 Ene=  0.000000000000000E+000
 Spin= Alpha
 Occup=    2.00000000000000     
                     1 -4.844618567921422E-005
                     2 -2.189858903918846E-004
                     3  2.380217146287905E-003
                     4  1.040303248171320E-004
                     5  1.244702278065839E-003
                     6 -3.727967616994625E-005
                     7  3.010537644447902E-003
                     8  0.000000000000000E+000
                     9 -6.692386150654755E-007
                    10 -5.661372542330759E-005
                    11  0.000000000000000E+000
                    12  1.769931318804970E-005
                    13 -5.236847319652197E-004
                    14  0.000000000000000E+000
                    15  3.467272855497988E-005
                    16  0.000000000000000E+000
                    17  0.000000000000000E+000
                    18 -7.086777268222860E-005
                    19 -2.366104608848073E-006
                    20 -1.450391993158274E-004
                    21  0.000000000000000E+000
                    22  0.000000000000000E+000
                    23  3.799394642486996E-004
                    24  1.296163107544323E-005
                    25  0.000000000000000E+000
                    26 -2.764889258462186E-007
                    27  1.104041533877998E-004
                    28  0.000000000000000E+000
                    29  0.000000000000000E+000
                    30 -5.910603258306786E-006
                    31  1.450783300307226E-004
                    32   1.00106518330084     
                    33  9.281498190567459E-003
                    34  2.616112007549841E-003
                    35 -7.763798480856689E-003
                    36 -5.182635863068258E-006
                    37 -4.161619947222391E-003
                    38  0.000000000000000E+000
                    39 -1.359783570668057E-006
                    40  1.022985181997017E-003
                    41  0.000000000000000E+000
                    42  1.339325319917724E-005
                    43  4.416145761319249E-003
                    44  0.000000000000000E+000
                    45 -6.066074470212694E-004
                    46  0.000000000000000E+000
                    47  0.000000000000000E+000
                    48 -1.953455041146010E-004
                    49  2.193145040173196E-007
                    50  5.197999454387944E-004
                    51  0.000000000000000E+000
                    52  0.000000000000000E+000
                    53 -9.403146160491056E-004
                    54  8.747493446943843E-006
                    55  0.000000000000000E+000
                    56  4.915017237886951E-007
                    57  7.283781482607319E-005
                    58  0.000000000000000E+000
                    59  0.000000000000000E+000
                    60 -1.864719525089939E-006
                    61  4.268642600544907E-004
                    62  7.167222513838462E-003
                    63 -2.052237963038635E-003
                    64 -2.745486522926129E-004
                    65  3.020605234511556E-003
                    66  8.828576479997193E-005
                    67 -1.843916523775741E-006
                    68  0.000000000000000E+000
                    69  5.999217597927437E-004
                    70  2.851217469356277E-005
                    71  0.000000000000000E+000
                    72 -2.079898868229670E-003
                    73  9.937091499898238E-005
                    74  0.000000000000000E+000
                    75  3.267350548219102E-005
                    76  0.000000000000000E+000
                    77  0.000000000000000E+000
                    78 -2.251657596616722E-006
                    79  1.296684656955115E-005
                    80 -3.910901233173580E-004
                    81  0.000000000000000E+000
                    82  0.000000000000000E+000
                    83 -6.461896048177572E-004
                    84 -4.121698645607997E-004
                    85  0.000000000000000E+000
                    86  3.711870087829026E-005
                    87 -5.589862197452518E-005
                    88  0.000000000000000E+000
                    89  0.000000000000000E+000
                    90  5.597021039221446E-005
                    91  1.351329224378185E-004
                    92  7.174417484730839E-003
                    93 -2.057306462992961E-003
                    94 -2.739152709597999E-004
                    95  3.015275362676965E-003
                    96 -8.648189317362767E-005
                    97 -7.611908559697955E-007
                    98  0.000000000000000E+000
                    99 -5.951224826542714E-004
                   100  2.757725031591915E-005
                   101  0.000000000000000E+000
                   102  2.080958162677805E-003
                   103  1.143019797968334E-004
                   104  0.000000000000000E+000
                   105  3.303217613183127E-005
                   106  0.000000000000000E+000
                   107  0.000000000000000E+000
                   108 -1.391913011696793E-006
                   109 -1.369453048542175E-005
                   110 -3.923368827199614E-004
                   111  0.000000000000000E+000
                   112  0.000000000000000E+000
                   113 -6.515959614790454E-004
                   114  4.121586995975757E-004
                   115  0.000000000000000E+000
                   116 -3.644282289691725E-005
                   117 -5.579694915021385E-005
                   118  0.000000000000000E+000
                   119  0.000000000000000E+000
                   120 -5.478711218211793E-005
                   121  1.360680990880207E-004
                   122 -2.323813081093201E-004
                   123 -7.463518329635351E-004
                   124  2.253491538279435E-004
                   125 -1.148595641645894E-004
                   126 -1.628912172062669E-005
                   127 -2.622184210687450E-004
                   128  0.000000000000000E+000
                   129 -1.604665299278329E-005
                   130  5.352917768400399E-004
                   131  0.000000000000000E+000
                   132  3.277416179528276E-004
                   133  7.407226377906889E-004
                   134  0.000000000000000E+000
                   135  1.930080023965157E-005
                   136  0.000000000000000E+000
                   137  0.000000000000000E+000
                   138  5.120846953916120E-006
                   139  5.128335814681494E-005
                   140  1.330124985914485E-004
                   141  0.000000000000000E+000
                   142  0.000000000000000E+000
                   143  2.564184858148430E-004
                   144 -2.147891341671169E-004
                   145  0.000000000000000E+000
                   146  5.127909395146435E-006
                   147 -3.090437057514177E-005
                   148  0.000000000000000E+000
                   149  0.000000000000000E+000
                   150 -4.117632936444610E-005
                   151  2.521233042968947E-005
                   152 -2.316248041704028E-004
                   153 -7.487783448208830E-004
                   154  2.249729222756812E-004
                   155 -1.124157816740414E-004
                   156  1.705014626192851E-005
                   157 -2.618969928455469E-004
                   158  0.000000000000000E+000
                   159  1.128941964461803E-005
                   160  5.364596768889439E-004