[Molden Format]
[Atoms] AU
  N     1    7    -0.0005437000   -4.2969785200    0.0000000000        
  C     2    6     0.0032892300   -1.7794205500    0.0000000000        
  C     3    6    -2.3359441400   -0.4122149200    0.0000000000        
  C     4    6     2.3411791900   -0.4081684900    0.0000000000        
  C     5    6    -2.2989415000    2.1634042600    0.0000000000        
  C     6    6     2.2990680600    2.1673544300    0.0000000000        
  C     7    6    -0.0011597500    3.4779837600    0.0000000000        
  H     8    1    -1.7819600900   -5.3682133600    0.0000000000        
  H     9    1     1.6375785000   -5.3397164800    0.0000000000        
  H    10    1    -4.0708253000   -1.4467305700    0.0000000000        
  H    11    1     4.0786953200   -1.4385474100    0.0000000000        
  H    12    1    -4.0429815400    3.1934101200    0.0000000000        
  H    13    1     4.0405149300    3.2013912400    0.0000000000        
  H    14    1    -0.0027505600    5.5045380000    0.0000000000        
[5D]
[7F]
[GTO]
  1  0
   s    12 1.00
  0.114200D+05  0.172695D-04
  0.171200D+04  0.134411D-03
  0.389300D+03  0.694561D-03
  0.110000D+03  0.278531D-02
  0.355700D+02  0.863457D-02
  0.125400D+02  0.199805D-01
  0.464400D+01  0.262908D-01
  0.129300D+01 -0.243845D-01
  0.511800D+00 -0.924934D-01
  0.178700D+00 -0.339683D+00
  0.246240D-01  0.345111D+00
  0.112530D-01  0.752750D+00
   s    10 1.00
  0.114200D+05  0.523000D-03
  0.171200D+04  0.404500D-02
  0.389300D+03  0.207750D-01
  0.110000D+03  0.807269D-01
  0.355700D+02  0.233074D+00
  0.125400D+02  0.433501D+00
  0.464400D+01  0.347472D+00
  0.129300D+01  0.412620D-01
  0.511800D+00 -0.850799D-02
  0.178700D+00  0.238400D-02
   s    10 1.00
  0.114200D+05 -0.115000D-03
  0.171200D+04 -0.895000D-03
  0.389300D+03 -0.462400D-02
  0.110000D+03 -0.185280D-01
  0.355700D+02 -0.573390D-01
  0.125400D+02 -0.132076D+00
  0.464400D+01 -0.172510D+00
  0.129300D+01  0.151814D+00
  0.511800D+00  0.599944D+00
  0.178700D+00  0.387462D+00
   s     1 1.00
  0.129300D+01  0.100000D+01
   s     1 1.00
  0.178700D+00  0.100000D+01
   p     5 1.00
  0.266300D+02  0.146700D-01
  0.594800D+01  0.917640D-01
  0.174200D+01  0.298683D+00
  0.555000D+00  0.498487D+00
  0.172500D+00  0.337023D+00
   p     1 1.00
  0.174200D+01  0.100000D+01
   p     1 1.00
  0.555000D+00  0.100000D+01
   d     1 1.00
  0.165400D+01  0.100000D+01
   d     1 1.00
  0.469000D+00  0.100000D+01
   f     1 1.00
  0.109300D+01  0.100000D+01
  
  2  0
   s    10 1.00
  0.823600D+04  0.531000D-03
  0.123500D+04  0.410800D-02
  0.280800D+03  0.210870D-01
  0.792700D+02  0.818530D-01
  0.255900D+02  0.234817D+00
  0.899700D+01  0.434401D+00
  0.331900D+01  0.346129D+00
  0.905900D+00  0.393780D-01
  0.364300D+00 -0.898300D-02
  0.128500D+00  0.238500D-02
   s    10 1.00
  0.823600D+04 -0.113000D-03
  0.123500D+04 -0.878000D-03
  0.280800D+03 -0.454000D-02
  0.792700D+02 -0.181330D-01
  0.255900D+02 -0.557600D-01
  0.899700D+01 -0.126895D+00
  0.331900D+01 -0.170352D+00
  0.905900D+00  0.140382D+00
  0.364300D+00  0.598684D+00
  0.128500D+00  0.395389D+00
   s     1 1.00
  0.905900D+00  0.100000D+01
   s     1 1.00
  0.364300D+00  0.100000D+01
   p     5 1.00
  0.187100D+02  0.140310D-01
  0.413300D+01  0.868660D-01
  0.120000D+01  0.290216D+00
  0.382700D+00  0.501008D+00
  0.120900D+00  0.343406D+00
   p     1 1.00
  0.382700D+00  0.100000D+01
   p     1 1.00
  0.120900D+00  0.100000D+01
   d     1 1.00
  0.109700D+01  0.100000D+01
   d     1 1.00
  0.318000D+00  0.100000D+01
   f     1 1.00
  0.761000D+00  0.100000D+01
  
  3  0
   s    10 1.00
  0.823600D+04  0.531000D-03
  0.123500D+04  0.410800D-02
  0.280800D+03  0.210870D-01
  0.792700D+02  0.818530D-01
  0.255900D+02  0.234817D+00
  0.899700D+01  0.434401D+00
  0.331900D+01  0.346129D+00
  0.905900D+00  0.393780D-01
  0.364300D+00 -0.898300D-02
  0.128500D+00  0.238500D-02
   s    10 1.00
  0.823600D+04 -0.113000D-03
  0.123500D+04 -0.878000D-03
  0.280800D+03 -0.454000D-02
  0.792700D+02 -0.181330D-01
  0.255900D+02 -0.557600D-01
  0.899700D+01 -0.126895D+00
  0.331900D+01 -0.170352D+00
  0.905900D+00  0.140382D+00
  0.364300D+00  0.598684D+00
  0.128500D+00  0.395389D+00
   s     1 1.00
  0.905900D+00  0.100000D+01
   s     1 1.00
  0.364300D+00  0.100000D+01
   p     5 1.00
  0.187100D+02  0.140310D-01
  0.413300D+01  0.868660D-01
  0.120000D+01  0.290216D+00
  0.382700D+00  0.501008D+00
  0.120900D+00  0.343406D+00
   p     1 1.00
  0.382700D+00  0.100000D+01
   p     1 1.00
  0.120900D+00  0.100000D+01
   d     1 1.00
  0.109700D+01  0.100000D+01
   d     1 1.00
  0.318000D+00  0.100000D+01
   f     1 1.00
  0.761000D+00  0.100000D+01
  
  4  0
   s    10 1.00
  0.823600D+04  0.531000D-03
  0.123500D+04  0.410800D-02
  0.280800D+03  0.210870D-01
  0.792700D+02  0.818530D-01
  0.255900D+02  0.234817D+00
  0.899700D+01  0.434401D+00
  0.331900D+01  0.346129D+00
  0.905900D+00  0.393780D-01
  0.364300D+00 -0.898300D-02
  0.128500D+00  0.238500D-02
   s    10 1.00
  0.823600D+04 -0.113000D-03
  0.123500D+04 -0.878000D-03
  0.280800D+03 -0.454000D-02
  0.792700D+02 -0.181330D-01
  0.255900D+02 -0.557600D-01
  0.899700D+01 -0.126895D+00
  0.331900D+01 -0.170352D+00
  0.905900D+00  0.140382D+00
  0.364300D+00  0.598684D+00
  0.128500D+00  0.395389D+00
   s     1 1.00
  0.905900D+00  0.100000D+01
   s     1 1.00
  0.364300D+00  0.100000D+01
   p     5 1.00
  0.187100D+02  0.140310D-01
  0.413300D+01  0.868660D-01
  0.120000D+01  0.290216D+00
  0.382700D+00  0.501008D+00
  0.120900D+00  0.343406D+00
   p     1 1.00
  0.382700D+00  0.100000D+01
   p     1 1.00
  0.120900D+00  0.100000D+01
   d     1 1.00
  0.109700D+01  0.100000D+01
   d     1 1.00
  0.318000D+00  0.100000D+01
   f     1 1.00
  0.761000D+00  0.100000D+01
  
  5  0
   s    10 1.00
  0.823600D+04  0.531000D-03
  0.123500D+04  0.410800D-02
  0.280800D+03  0.210870D-01
  0.792700D+02  0.818530D-01
  0.255900D+02  0.234817D+00
  0.899700D+01  0.434401D+00
  0.331900D+01  0.346129D+00
  0.905900D+00  0.393780D-01
  0.364300D+00 -0.898300D-02
  0.128500D+00  0.238500D-02
   s    10 1.00
  0.823600D+04 -0.113000D-03
  0.123500D+04 -0.878000D-03
  0.280800D+03 -0.454000D-02
  0.792700D+02 -0.181330D-01
  0.255900D+02 -0.557600D-01
  0.899700D+01 -0.126895D+00
  0.331900D+01 -0.170352D+00
  0.905900D+00  0.140382D+00
  0.364300D+00  0.598684D+00
  0.128500D+00  0.395389D+00
   s     1 1.00
  0.905900D+00  0.100000D+01
   s     1 1.00
  0.364300D+00  0.100000D+01
   p     5 1.00
  0.187100D+02  0.140310D-01
  0.413300D+01  0.868660D-01
  0.120000D+01  0.290216D+00
  0.382700D+00  0.501008D+00
  0.120900D+00  0.343406D+00
   p     1 1.00
  0.382700D+00  0.100000D+01
   p     1 1.00
  0.120900D+00  0.100000D+01
   d     1 1.00
  0.109700D+01  0.100000D+01
   d     1 1.00
  0.318000D+00  0.100000D+01
   f     1 1.00
  0.761000D+00  0.100000D+01
  
  6  0
   s    10 1.00
  0.823600D+04  0.531000D-03
  0.123500D+04  0.410800D-02
  0.280800D+03  0.210870D-01
  0.792700D+02  0.818530D-01
  0.255900D+02  0.234817D+00
  0.899700D+01  0.434401D+00
  0.331900D+01  0.346129D+00
  0.905900D+00  0.393780D-01
  0.364300D+00 -0.898300D-02
  0.128500D+00  0.238500D-02
   s    10 1.00
  0.823600D+04 -0.113000D-03
  0.123500D+04 -0.878000D-03
  0.280800D+03 -0.454000D-02
  0.792700D+02 -0.181330D-01
  0.255900D+02 -0.557600D-01
  0.899700D+01 -0.126895D+00
  0.331900D+01 -0.170352D+00
  0.905900D+00  0.140382D+00
  0.364300D+00  0.598684D+00
  0.128500D+00  0.395389D+00
   s     1 1.00
  0.905900D+00  0.100000D+01
   s     1 1.00
  0.364300D+00  0.100000D+01
   p     5 1.00
  0.187100D+02  0.140310D-01
  0.413300D+01  0.868660D-01
  0.120000D+01  0.290216D+00
  0.382700D+00  0.501008D+00
  0.120900D+00  0.343406D+00
   p     1 1.00
  0.382700D+00  0.100000D+01
   p     1 1.00
  0.120900D+00  0.100000D+01
   d     1 1.00
  0.109700D+01  0.100000D+01
   d     1 1.00
  0.318000D+00  0.100000D+01
   f     1 1.00
  0.761000D+00  0.100000D+01
  
  7  0
   s    10 1.00
  0.823600D+04  0.531000D-03
  0.123500D+04  0.410800D-02
  0.280800D+03  0.210870D-01
  0.792700D+02  0.818530D-01
  0.255900D+02  0.234817D+00
  0.899700D+01  0.434401D+00
  0.331900D+01  0.346129D+00
  0.905900D+00  0.393780D-01
  0.364300D+00 -0.898300D-02
  0.128500D+00  0.238500D-02
   s    10 1.00
  0.823600D+04 -0.113000D-03
  0.123500D+04 -0.878000D-03
  0.280800D+03 -0.454000D-02
  0.792700D+02 -0.181330D-01
  0.255900D+02 -0.557600D-01
  0.899700D+01 -0.126895D+00
  0.331900D+01 -0.170352D+00
  0.905900D+00  0.140382D+00
  0.364300D+00  0.598684D+00
  0.128500D+00  0.395389D+00
   s     1 1.00
  0.905900D+00  0.100000D+01
   s     1 1.00
  0.364300D+00  0.100000D+01
   p     5 1.00
  0.187100D+02  0.140310D-01
  0.413300D+01  0.868660D-01
  0.120000D+01  0.290216D+00
  0.382700D+00  0.501008D+00
  0.120900D+00  0.343406D+00
   p     1 1.00
  0.382700D+00  0.100000D+01
   p     1 1.00
  0.120900D+00  0.100000D+01
   d     1 1.00
  0.109700D+01  0.100000D+01
   d     1 1.00
  0.318000D+00  0.100000D+01
   f     1 1.00
  0.761000D+00  0.100000D+01
  
  8  0
   s     4 1.00
  0.130100D+02  0.196850D-01
  0.196200D+01  0.137977D+00
  0.444600D+00  0.478148D+00
  0.122000D+00  0.501240D+00
   s     1 1.00
  0.122000D+00  0.100000D+01
   p     1 1.00
  0.727000D+00  0.100000D+01
  
  9  0
   s     4 1.00
  0.130100D+02  0.196850D-01
  0.196200D+01  0.137977D+00
  0.444600D+00  0.478148D+00
  0.122000D+00  0.501240D+00
   s     1 1.00
  0.122000D+00  0.100000D+01
   p     1 1.00
  0.727000D+00  0.100000D+01
  
 10  0
   s     4 1.00
  0.130100D+02  0.196850D-01
  0.196200D+01  0.137977D+00
  0.444600D+00  0.478148D+00
  0.122000D+00  0.501240D+00
   s     1 1.00
  0.122000D+00  0.100000D+01
   p     1 1.00
  0.727000D+00  0.100000D+01
  
 11  0
   s     4 1.00
  0.130100D+02  0.196850D-01
  0.196200D+01  0.137977D+00
  0.444600D+00  0.478148D+00
  0.122000D+00  0.501240D+00
   s     1 1.00
  0.122000D+00  0.100000D+01
   p     1 1.00
  0.727000D+00  0.100000D+01
  
 12  0
   s     4 1.00
  0.130100D+02  0.196850D-01
  0.196200D+01  0.137977D+00
  0.444600D+00  0.478148D+00
  0.122000D+00  0.501240D+00
   s     1 1.00
  0.122000D+00  0.100000D+01
   p     1 1.00
  0.727000D+00  0.100000D+01
  
 13  0
   s     4 1.00
  0.130100D+02  0.196850D-01
  0.196200D+01  0.137977D+00
  0.444600D+00  0.478148D+00
  0.122000D+00  0.501240D+00
   s     1 1.00
  0.122000D+00  0.100000D+01
   p     1 1.00
  0.727000D+00  0.100000D+01
  
 14  0
   s     4 1.00
  0.130100D+02  0.196850D-01
  0.196200D+01  0.137977D+00
  0.444600D+00  0.478148D+00
  0.122000D+00  0.501240D+00
   s     1 1.00
  0.122000D+00  0.100000D+01
   p     1 1.00
  0.727000D+00  0.100000D+01
  
[MO]
 Sym= __1_A__
 Ene=   1.00000000000000     
 Spin= Alpha
 Occup=    1.00000000000000     
                     1  2.981068974755048E-005
                     2  0.998184683499157     
                     3  8.494416163152104E-003
                     4  1.958036174694618E-003
                     5  1.754112376797419E-003
                     6  1.502645652905381E-004
                     7  4.540559454174854E-003
                     8  0.000000000000000E+000
                     9  6.986862622327373E-005
                    10 -9.535747222992730E-005
                    11  0.000000000000000E+000
                    12  1.323283820969660E-005
                    13 -1.703455816223336E-004
                    14  0.000000000000000E+000
                    15 -2.030735688329683E-004
                    16  0.000000000000000E+000
                    17  0.000000000000000E+000
                    18 -1.913949737139674E-004
                    19 -3.963317303089952E-005
                    20  4.236340303352342E-004
                    21  0.000000000000000E+000
                    22  0.000000000000000E+000
                    23 -4.017828095517040E-004
                    24  1.142502332656338E-005
                    25  0.000000000000000E+000
                    26 -1.649070978256650E-005
                    27 -5.023070644778831E-005
                    28  0.000000000000000E+000
                    29  0.000000000000000E+000
                    30  4.446017986319581E-006
                    31 -1.698921533876828E-004
                    32 -3.553152460236379E-004
                    33  2.631849462071366E-003
                    34  1.321631376463974E-004
                    35 -2.154022866544085E-004
                    36 -1.474059559986600E-005
                    37 -6.862498271196392E-003
                    38  0.000000000000000E+000
                    39 -1.853902343997447E-005
                    40  3.076356552264968E-004
                    41  0.000000000000000E+000
                    42 -3.845504626250707E-005
                    43  4.479244306026577E-003
                    44  0.000000000000000E+000
                    45 -5.515110486732481E-005
                    46  0.000000000000000E+000
                    47  0.000000000000000E+000
                    48 -3.645883096796906E-004
                    49 -6.458941539659263E-006
                    50 -4.193421129544209E-004
                    51  0.000000000000000E+000
                    52  0.000000000000000E+000
                    53  1.334325186971021E-004
                    54  8.774902932182652E-006
                    55  0.000000000000000E+000
                    56  1.356598033025102E-006
                    57 -4.785635798893173E-006
                    58  0.000000000000000E+000
                    59  0.000000000000000E+000
                    60  3.005440041049584E-006
                    61 -1.240518859233979E-004
                    62 -2.049276753388499E-004
                    63 -1.594347937200713E-003
                    64  5.730367217236066E-005
                    65  5.540566012144121E-004
                    66 -8.037091891721388E-004
                    67  9.453575624825669E-004
                    68  0.000000000000000E+000
                    69 -3.135465735432158E-005
                    70  6.081480961447616E-004
                    71  0.000000000000000E+000
                    72 -6.490474910060412E-004
                    73 -1.079130218104641E-004
                    74  0.000000000000000E+000
                    75 -1.060000943658700E-005
                    76  0.000000000000000E+000
                    77  0.000000000000000E+000
                    78 -9.661287079384530E-005
                    79 -7.097167430225400E-006
                    80 -1.038100006211454E-005
                    81  0.000000000000000E+000
                    82  0.000000000000000E+000
                    83  2.463291466349142E-005
                    84  1.908360449346204E-004
                    85  0.000000000000000E+000
                    86  2.057741404365909E-005
                    87 -4.228216057643493E-005
                    88  0.000000000000000E+000
                    89  0.000000000000000E+000
                    90 -2.688876724485588E-005
                    91 -8.456069986089915E-005
                    92 -2.199121331718536E-004
                    93 -1.690557418588516E-003
                    94  5.739485327514634E-005
                    95  5.838412423168349E-004
                    96  8.328015798329618E-004
                    97  9.914423103017549E-004
                    98  0.000000000000000E+000
                    99  2.972366766068528E-005
                   100  6.083260854415287E-004
                   101  0.000000000000000E+000
                   102  5.679435876599178E-004
                   103 -2.258957782028182E-004
                   104  0.000000000000000E+000
                   105 -9.720933680141872E-006
                   106  0.000000000000000E+000
                   107  0.000000000000000E+000
                   108 -9.957534902463554E-005
                   109  6.400666069844976E-006
                   110 -2.112282477028799E-005
                   111  0.000000000000000E+000
                   112  0.000000000000000E+000
                   113  1.973833222923836E-005
                   114 -1.795952083096304E-004
                   115  0.000000000000000E+000
                   116 -1.876437899682432E-005
                   117 -4.036159327777204E-005
                   118  0.000000000000000E+000
                   119  0.000000000000000E+000
                   120  2.242461942329923E-005
                   121 -8.625707136460082E-005
                   122 -1.470477815563707E-004
                   123 -1.760187453703279E-005
                   124  1.072201188846030E-004
                   125  1.405447979180661E-004
                   126  3.755969352722447E-005
                   127 -7.605721480093337E-004
                   128  0.000000000000000E+000
                   129  3.470819473210270E-005
                   130  3.502795239275626E-004
                   131  0.000000000000000E+000
                   132 -1.420400364931044E-004
                   133  7.640054357067846E-004
                   134  0.000000000000000E+000
                   135  9.441734691359057E-006
                   136  0.000000000000000E+000
                   137  0.000000000000000E+000
                   138  1.456910362384894E-005
                   139  1.074162477800473E-006
                   140  1.049102882558314E-004
                   141  0.000000000000000E+000
                   142  0.000000000000000E+000
                   143  1.610319941619588E-004
                   144  1.659547083027724E-004
                   145  0.000000000000000E+000
                   146 -4.438011998735139E-006
                   147 -3.198047141439943E-005
                   148  0.000000000000000E+000
                   149  0.000000000000000E+000
                   150  1.435611243204174E-006
                   151 -2.429005562029797E-005
                   152 -1.484233273803283E-004
                   153 -7.182577916449798E-006
                   154  1.112975496506324E-004
                   155  1.291080193473973E-004
                   156 -3.806686374682480E-005
                   157 -7.779495880561113E-004
                   158  0.000000000000000E+000
                   159 -3.261747634203629E-005
                   160  3.504429082093926E-004
                   161  0.000000000000000E+000
                   162  2.169721138760397E-004
                   163  6.711896473633948E-004
                   164  0.000000000000000E+000
                   165  9.222154878915917E-006
                   166  0.000000000000000E+000
                   167  0.000000000000000E+000
                   168  1.528717187313379E-005
                   169 -1.933717283176703E-006
                   170  1.113144546516386E-004
                   171  0.000000000000000E+000
                   172  0.000000000000000E+000
                   173  1.553116054751887E-004
                   174 -1.610185936343960E-004
                   175  0.000000000000000E+000
                   176  3.845209191652879E-006
                   177 -3.190228951069345E-005
                   178  0.000000000000000E+000
                   179  0.000000000000000E+000
                   180 -6.122942816303962E-007
                   181 -2.561110426561090E-005
                   182 -1.185115998624796E-004
                   183 -3.163090707085252E-004
                   184  3.370493899087320E-005
                   185  1.389906193724904E-004
                   186 -5.547092388695812E-007
                   187 -4.196620423362164E-005
                   188  0.000000000000000E+000
                   189  7.693767865282171E-006
                   190  2.202337969579287E-005
                   191  0.000000000000000E+000
                   192  5.783690700811316E-005
                   193  3.344403027652504E-005
                   194  0.000000000000000E+000
                   195 -1.706250795164199E-006
                   196  0.000000000000000E+000
                   197  0.000000000000000E+000
                   198 -2.076435091471418E-005
                   199 -5.185513699199925E-007
                   200  1.675785463680827E-005
                   201  0.000000000000000E+000
                   202  0.000000000000000E+000
                   203 -7.677301632306724E-005
                   204 -4.772335369261088E-006
                   205  0.000000000000000E+000
                   206 -4.189218665535505E-007
                   207 -5.021614952235897E-006
                   208  0.000000000000000E+000
                   209  0.000000000000000E+000
                   210  4.054045767920815E-009
                   211 -9.466196702592444E-006
                   212  2.939951935679072E-003
                   213 -1.817896134799294E-003
                   214  4.617804312083793E-004
                   215  3.575728305499748E-004
                   216  0.000000000000000E+000
                   217  3.708900187854249E-003
                   218 -2.258794240391218E-003
                   219 -4.450055512889467E-004
                   220  3.778833877584820E-004
                   221  0.000000000000000E+000
                   222 -6.182359394993190E-004
                   223 -1.864955265274472E-004
                   224 -1.524837677161429E-005
                   225 -4.287065194192382E-005
                   226  0.000000000000000E+000
                   227 -6.351835980381898E-004
                   228 -1.501425667395597E-004
                   229  1.524109643194303E-005
                   230 -4.217270341730260E-005
                   231  0.000000000000000E+000
                   232 -2.209383219825103E-004
                   233 -4.113605240298648E-004
                   234 -5.237435895160156E-006
                   235  5.161277012237229E-006
                   236  0.000000000000000E+000
                   237 -2.245988055512157E-004
                   238 -4.205821525400467E-004
                   239  4.471147868548264E-006
                   240  3.963382088764126E-006
                   241  0.000000000000000E+000
                   242  6.643824639876386E-005
                   243 -1.215144427094584E-004
                   244 -1.881416284750827E-007
                   245  1.426889293704864E-005
                   246  0.000000000000000E+000
 Sym= __2_A__
 Ene=   2.00000000000000     
 Spin= Alpha
 Occup=    1.00000000000000     
                     1 -4.844617750433251E-005
                     2 -2.189866654892856E-004
                     3  2.380217093712546E-003
                     4  1.040303229230676E-004
                     5  1.244702365497590E-003
                     6 -3.727971192580252E-005
                     7  3.010537635403170E-003
                     8  0.000000000000000E+000
                     9 -6.692332065362064E-007
                    10 -5.661373126949442E-005
                    11  0.000000000000000E+000
                    12  1.769930277139968E-005
                    13 -5.236847257929550E-004
                    14  0.000000000000000E+000
                    15  3.467273114945592E-005
                    16  0.000000000000000E+000
                    17  0.000000000000000E+000
                    18 -7.086777256103833E-005
                    19 -2.366119526281795E-006
                    20 -1.450392076864516E-004
                    21  0.000000000000000E+000
                    22  0.000000000000000E+000
                    23  3.799394783196620E-004
                    24  1.296156518756859E-005
                    25  0.000000000000000E+000
                    26 -2.764871994211637E-007
                    27  1.104041514418707E-004
                    28  0.000000000000000E+000
                    29  0.000000000000000E+000
                    30 -5.910614726249187E-006
                    31  1.450783359193892E-004
                    32   1.00106518450403     
                    33  9.281497889594226E-003
                    34  2.616112077272032E-003
                    35 -7.763798864437235E-003
                    36 -5.184374475930758E-006
                    37 -4.161620116606804E-003
                    38  0.000000000000000E+000
                    39 -1.359651556113397E-006
                    40  1.022985101745639E-003
                    41  0.000000000000000E+000
                    42  1.339366316984522E-005
                    43  4.416145797702845E-003
                    44  0.000000000000000E+000
                    45 -6.066074450628607E-004
                    46  0.000000000000000E+000
                    47  0.000000000000000E+000
                    48 -1.953455170595234E-004
                    49  2.192747638425033E-007
                    50  5.198000375530921E-004
                    51  0.000000000000000E+000
                    52  0.000000000000000E+000
                    53 -9.403147123897394E-004
                    54  8.747384678943453E-006
                    55  0.000000000000000E+000
                    56  4.915202119047489E-007
                    57  7.283781299817644E-005
                    58  0.000000000000000E+000
                    59  0.000000000000000E+000
                    60 -1.864713191657113E-006
                    61  4.268642734089682E-004
                    62  7.167131404107693E-003
                    63 -2.052238233156505E-003
                    64 -2.745489612981540E-004
                    65  3.020605988123294E-003
                    66  8.828643421590389E-005
                    67 -1.844438990831100E-006
                    68  0.000000000000000E+000
                    69  5.999218281949193E-004
                    70  2.851217372485965E-005
                    71  0.000000000000000E+000
                    72 -2.079898948278529E-003
                    73  9.937097114589511E-005
                    74  0.000000000000000E+000
                    75  3.267353544091311E-005
                    76  0.000000000000000E+000
                    77  0.000000000000000E+000
                    78 -2.251635692096954E-006
                    79  1.296682274906457E-005
                    80 -3.910901868577787E-004
                    81  0.000000000000000E+000
                    82  0.000000000000000E+000
                    83 -6.461896491614884E-004
                    84 -4.121699884135840E-004
                    85  0.000000000000000E+000
                    86  3.711868130862543E-005
                    87 -5.589861580197540E-005
                    88  0.000000000000000E+000
                    89  0.000000000000000E+000
                    90  5.597021555271439E-005
                    91  1.351329426422312E-004
                    92  7.174365991915002E-003
                    93 -2.057307778247178E-003
                    94 -2.739154364565090E-004
                    95  3.015275884577156E-003
                    96 -8.648110257629585E-005
                    97 -7.599494777738793E-007
                    98  0.000000000000000E+000
                    99 -5.951226192540610E-004
                   100  2.757709907307956E-005
                   101  0.000000000000000E+000
                   102  2.080958021225450E-003
                   103  1.143016684204063E-004
                   104  0.000000000000000E+000
                   105  3.303221130741857E-005
                   106  0.000000000000000E+000
                   107  0.000000000000000E+000
                   108 -1.391932765787407E-006
                   109 -1.369456353889321E-005
                   110 -3.923368940088256E-004
                   111  0.000000000000000E+000
                   112  0.000000000000000E+000
                   113 -6.515959616841772E-004
                   114  4.121586947568817E-004
                   115  0.000000000000000E+000
                   116 -3.644282376656754E-005
                   117 -5.579695819830632E-005
                   118  0.000000000000000E+000
                   119  0.000000000000000E+000
                   120 -5.478710769435652E-005
                   121  1.360681322246850E-004
                   122 -2.323839323745091E-004
                   123 -7.463519207149202E-004
                   124  2.253491810770313E-004
                   125 -1.148598622838636E-004
                   126 -1.628904183296266E-005
                   127 -2.622182107859521E-004
                   128  0.000000000000000E+000
                   129 -1.604668735567531E-005
                   130  5.352918078319910E-004
                   131  0.000000000000000E+000
                   132  3.277416088194694E-004
                   133  7.407224688094338E-004
                   134  0.000000000000000E+000
                   135  1.930080094587589E-005
                   136  0.000000000000000E+000
                   137  0.000000000000000E+000
                   138  5.120851586689398E-006
                   139  5.128335188309400E-005
                   140  1.330125440910623E-004
                   141  0.000000000000000E+000
                   142  0.000000000000000E+000
                   143  2.564184875638648E-004
                   144 -2.147892173469716E-004
                   145  0.000000000000000E+000
                   146  5.127912221798947E-006
                   147 -3.090436360676265E-005
                   148  0.000000000000000E+000
                   149  0.000000000000000E+000
                   150 -4.117632841590225E-005
                   151  2.521233220760255E-005
                   152 -2.316261226988869E-004
                   153 -7.487778859951826E-004
                   154  2.249729230921783E-004
                   155 -1.124159808482885E-004
                   156  1.705000200312143E-005
                   157 -2.618975605481271E-004
                   158  0.000000000000000E+000
                   159  1.128947222269422E-005
                   160  5.364597100515177E-004