[Molden Format]
[Atoms] AU
  N     1    7    -0.0005437000   -4.2969785200    0.0000000000        
  C     2    6     0.0032892300   -1.7794205500    0.0000000000        
  C     3    6    -2.3359441400   -0.4122149200    0.0000000000        
  C     4    6     2.3411791900   -0.4081684900    0.0000000000        
  C     5    6    -2.2989415000    2.1634042600    0.0000000000        
  C     6    6     2.2990680600    2.1673544300    0.0000000000        
  C     7    6    -0.0011597500    3.4779837600    0.0000000000        
  H     8    1    -1.7819600900   -5.3682133600    0.0000000000        
  H     9    1     1.6375785000   -5.3397164800    0.0000000000        
  H    10    1    -4.0708253000   -1.4467305700    0.0000000000        
  H    11    1     4.0786953200   -1.4385474100    0.0000000000        
  H    12    1    -4.0429815400    3.1934101200    0.0000000000        
  H    13    1     4.0405149300    3.2013912400    0.0000000000        
  H    14    1    -0.0027505600    5.5045380000    0.0000000000        
[5D]
[7F]
[GTO]
  1  0
   s    12 1.00
  0.114200D+05  0.172695D-04
  0.171200D+04  0.134411D-03
  0.389300D+03  0.694561D-03
  0.110000D+03  0.278531D-02
  0.355700D+02  0.863457D-02
  0.125400D+02  0.199805D-01
  0.464400D+01  0.262908D-01
  0.129300D+01 -0.243845D-01
  0.511800D+00 -0.924934D-01
  0.178700D+00 -0.339683D+00
  0.246240D-01  0.345111D+00
  0.112530D-01  0.752750D+00
   s    10 1.00
  0.114200D+05  0.523000D-03
  0.171200D+04  0.404500D-02
  0.389300D+03  0.207750D-01
  0.110000D+03  0.807269D-01
  0.355700D+02  0.233074D+00
  0.125400D+02  0.433501D+00
  0.464400D+01  0.347472D+00
  0.129300D+01  0.412620D-01
  0.511800D+00 -0.850799D-02
  0.178700D+00  0.238400D-02
   s    10 1.00
  0.114200D+05 -0.115000D-03
  0.171200D+04 -0.895000D-03
  0.389300D+03 -0.462400D-02
  0.110000D+03 -0.185280D-01
  0.355700D+02 -0.573390D-01
  0.125400D+02 -0.132076D+00
  0.464400D+01 -0.172510D+00
  0.129300D+01  0.151814D+00
  0.511800D+00  0.599944D+00
  0.178700D+00  0.387462D+00
   s     1 1.00
  0.129300D+01  0.100000D+01
   s     1 1.00
  0.178700D+00  0.100000D+01
   p     5 1.00
  0.266300D+02  0.146700D-01
  0.594800D+01  0.917640D-01
  0.174200D+01  0.298683D+00
  0.555000D+00  0.498487D+00
  0.172500D+00  0.337023D+00
   p     1 1.00
  0.174200D+01  0.100000D+01
   p     1 1.00
  0.555000D+00  0.100000D+01
   d     1 1.00
  0.165400D+01  0.100000D+01
   d     1 1.00
  0.469000D+00  0.100000D+01
   f     1 1.00
  0.109300D+01  0.100000D+01
  
  2  0
   s    10 1.00
  0.823600D+04  0.531000D-03
  0.123500D+04  0.410800D-02
  0.280800D+03  0.210870D-01
  0.792700D+02  0.818530D-01
  0.255900D+02  0.234817D+00
  0.899700D+01  0.434401D+00
  0.331900D+01  0.346129D+00
  0.905900D+00  0.393780D-01
  0.364300D+00 -0.898300D-02
  0.128500D+00  0.238500D-02
   s    10 1.00
  0.823600D+04 -0.113000D-03
  0.123500D+04 -0.878000D-03
  0.280800D+03 -0.454000D-02
  0.792700D+02 -0.181330D-01
  0.255900D+02 -0.557600D-01
  0.899700D+01 -0.126895D+00
  0.331900D+01 -0.170352D+00
  0.905900D+00  0.140382D+00
  0.364300D+00  0.598684D+00
  0.128500D+00  0.395389D+00
   s     1 1.00
  0.905900D+00  0.100000D+01
   s     1 1.00
  0.364300D+00  0.100000D+01
   p     5 1.00
  0.187100D+02  0.140310D-01
  0.413300D+01  0.868660D-01
  0.120000D+01  0.290216D+00
  0.382700D+00  0.501008D+00
  0.120900D+00  0.343406D+00
   p     1 1.00
  0.382700D+00  0.100000D+01
   p     1 1.00
  0.120900D+00  0.100000D+01
   d     1 1.00
  0.109700D+01  0.100000D+01
   d     1 1.00
  0.318000D+00  0.100000D+01
   f     1 1.00
  0.761000D+00  0.100000D+01
  
  3  0
   s    10 1.00
  0.823600D+04  0.531000D-03
  0.123500D+04  0.410800D-02
  0.280800D+03  0.210870D-01
  0.792700D+02  0.818530D-01
  0.255900D+02  0.234817D+00
  0.899700D+01  0.434401D+00
  0.331900D+01  0.346129D+00
  0.905900D+00  0.393780D-01
  0.364300D+00 -0.898300D-02
  0.128500D+00  0.238500D-02
   s    10 1.00
  0.823600D+04 -0.113000D-03
  0.123500D+04 -0.878000D-03
  0.280800D+03 -0.454000D-02
  0.792700D+02 -0.181330D-01
  0.255900D+02 -0.557600D-01
  0.899700D+01 -0.126895D+00
  0.331900D+01 -0.170352D+00
  0.905900D+00  0.140382D+00
  0.364300D+00  0.598684D+00
  0.128500D+00  0.395389D+00
   s     1 1.00
  0.905900D+00  0.100000D+01
   s     1 1.00
  0.364300D+00  0.100000D+01
   p     5 1.00
  0.187100D+02  0.140310D-01
  0.413300D+01  0.868660D-01
  0.120000D+01  0.290216D+00
  0.382700D+00  0.501008D+00
  0.120900D+00  0.343406D+00
   p     1 1.00
  0.382700D+00  0.100000D+01
   p     1 1.00
  0.120900D+00  0.100000D+01
   d     1 1.00
  0.109700D+01  0.100000D+01
   d     1 1.00
  0.318000D+00  0.100000D+01
   f     1 1.00
  0.761000D+00  0.100000D+01
  
  4  0
   s    10 1.00
  0.823600D+04  0.531000D-03
  0.123500D+04  0.410800D-02
  0.280800D+03  0.210870D-01
  0.792700D+02  0.818530D-01
  0.255900D+02  0.234817D+00
  0.899700D+01  0.434401D+00
  0.331900D+01  0.346129D+00
  0.905900D+00  0.393780D-01
  0.364300D+00 -0.898300D-02
  0.128500D+00  0.238500D-02
   s    10 1.00
  0.823600D+04 -0.113000D-03
  0.123500D+04 -0.878000D-03
  0.280800D+03 -0.454000D-02
  0.792700D+02 -0.181330D-01
  0.255900D+02 -0.557600D-01
  0.899700D+01 -0.126895D+00
  0.331900D+01 -0.170352D+00
  0.905900D+00  0.140382D+00
  0.364300D+00  0.598684D+00
  0.128500D+00  0.395389D+00
   s     1 1.00
  0.905900D+00  0.100000D+01
   s     1 1.00
  0.364300D+00  0.100000D+01
   p     5 1.00
  0.187100D+02  0.140310D-01
  0.413300D+01  0.868660D-01
  0.120000D+01  0.290216D+00
  0.382700D+00  0.501008D+00
  0.120900D+00  0.343406D+00
   p     1 1.00
  0.382700D+00  0.100000D+01
   p     1 1.00
  0.120900D+00  0.100000D+01
   d     1 1.00
  0.109700D+01  0.100000D+01
   d     1 1.00
  0.318000D+00  0.100000D+01
   f     1 1.00
  0.761000D+00  0.100000D+01
  
  5  0
   s    10 1.00
  0.823600D+04  0.531000D-03
  0.123500D+04  0.410800D-02
  0.280800D+03  0.210870D-01
  0.792700D+02  0.818530D-01
  0.255900D+02  0.234817D+00
  0.899700D+01  0.434401D+00
  0.331900D+01  0.346129D+00
  0.905900D+00  0.393780D-01
  0.364300D+00 -0.898300D-02
  0.128500D+00  0.238500D-02
   s    10 1.00
  0.823600D+04 -0.113000D-03
  0.123500D+04 -0.878000D-03
  0.280800D+03 -0.454000D-02
  0.792700D+02 -0.181330D-01
  0.255900D+02 -0.557600D-01
  0.899700D+01 -0.126895D+00
  0.331900D+01 -0.170352D+00
  0.905900D+00  0.140382D+00
  0.364300D+00  0.598684D+00
  0.128500D+00  0.395389D+00
   s     1 1.00
  0.905900D+00  0.100000D+01
   s     1 1.00
  0.364300D+00  0.100000D+01
   p     5 1.00
  0.187100D+02  0.140310D-01
  0.413300D+01  0.868660D-01
  0.120000D+01  0.290216D+00
  0.382700D+00  0.501008D+00
  0.120900D+00  0.343406D+00
   p     1 1.00
  0.382700D+00  0.100000D+01
   p     1 1.00
  0.120900D+00  0.100000D+01
   d     1 1.00
  0.109700D+01  0.100000D+01
   d     1 1.00
  0.318000D+00  0.100000D+01
   f     1 1.00
  0.761000D+00  0.100000D+01
  
  6  0
   s    10 1.00
  0.823600D+04  0.531000D-03
  0.123500D+04  0.410800D-02
  0.280800D+03  0.210870D-01
  0.792700D+02  0.818530D-01
  0.255900D+02  0.234817D+00
  0.899700D+01  0.434401D+00
  0.331900D+01  0.346129D+00
  0.905900D+00  0.393780D-01
  0.364300D+00 -0.898300D-02
  0.128500D+00  0.238500D-02
   s    10 1.00
  0.823600D+04 -0.113000D-03
  0.123500D+04 -0.878000D-03
  0.280800D+03 -0.454000D-02
  0.792700D+02 -0.181330D-01
  0.255900D+02 -0.557600D-01
  0.899700D+01 -0.126895D+00
  0.331900D+01 -0.170352D+00
  0.905900D+00  0.140382D+00
  0.364300D+00  0.598684D+00
  0.128500D+00  0.395389D+00
   s     1 1.00
  0.905900D+00  0.100000D+01
   s     1 1.00
  0.364300D+00  0.100000D+01
   p     5 1.00
  0.187100D+02  0.140310D-01
  0.413300D+01  0.868660D-01
  0.120000D+01  0.290216D+00
  0.382700D+00  0.501008D+00
  0.120900D+00  0.343406D+00
   p     1 1.00
  0.382700D+00  0.100000D+01
   p     1 1.00
  0.120900D+00  0.100000D+01
   d     1 1.00
  0.109700D+01  0.100000D+01
   d     1 1.00
  0.318000D+00  0.100000D+01
   f     1 1.00
  0.761000D+00  0.100000D+01
  
  7  0
   s    10 1.00
  0.823600D+04  0.531000D-03
  0.123500D+04  0.410800D-02
  0.280800D+03  0.210870D-01
  0.792700D+02  0.818530D-01
  0.255900D+02  0.234817D+00
  0.899700D+01  0.434401D+00
  0.331900D+01  0.346129D+00
  0.905900D+00  0.393780D-01
  0.364300D+00 -0.898300D-02
  0.128500D+00  0.238500D-02
   s    10 1.00
  0.823600D+04 -0.113000D-03
  0.123500D+04 -0.878000D-03
  0.280800D+03 -0.454000D-02
  0.792700D+02 -0.181330D-01
  0.255900D+02 -0.557600D-01
  0.899700D+01 -0.126895D+00
  0.331900D+01 -0.170352D+00
  0.905900D+00  0.140382D+00
  0.364300D+00  0.598684D+00
  0.128500D+00  0.395389D+00
   s     1 1.00
  0.905900D+00  0.100000D+01
   s     1 1.00
  0.364300D+00  0.100000D+01
   p     5 1.00
  0.187100D+02  0.140310D-01
  0.413300D+01  0.868660D-01
  0.120000D+01  0.290216D+00
  0.382700D+00  0.501008D+00
  0.120900D+00  0.343406D+00
   p     1 1.00
  0.382700D+00  0.100000D+01
   p     1 1.00
  0.120900D+00  0.100000D+01
   d     1 1.00
  0.109700D+01  0.100000D+01
   d     1 1.00
  0.318000D+00  0.100000D+01
   f     1 1.00
  0.761000D+00  0.100000D+01
  
  8  0
   s     4 1.00
  0.130100D+02  0.196850D-01
  0.196200D+01  0.137977D+00
  0.444600D+00  0.478148D+00
  0.122000D+00  0.501240D+00
   s     1 1.00
  0.122000D+00  0.100000D+01
   p     1 1.00
  0.727000D+00  0.100000D+01
  
  9  0
   s     4 1.00
  0.130100D+02  0.196850D-01
  0.196200D+01  0.137977D+00
  0.444600D+00  0.478148D+00
  0.122000D+00  0.501240D+00
   s     1 1.00
  0.122000D+00  0.100000D+01
   p     1 1.00
  0.727000D+00  0.100000D+01
  
 10  0
   s     4 1.00
  0.130100D+02  0.196850D-01
  0.196200D+01  0.137977D+00
  0.444600D+00  0.478148D+00
  0.122000D+00  0.501240D+00
   s     1 1.00
  0.122000D+00  0.100000D+01
   p     1 1.00
  0.727000D+00  0.100000D+01
  
 11  0
   s     4 1.00
  0.130100D+02  0.196850D-01
  0.196200D+01  0.137977D+00
  0.444600D+00  0.478148D+00
  0.122000D+00  0.501240D+00
   s     1 1.00
  0.122000D+00  0.100000D+01
   p     1 1.00
  0.727000D+00  0.100000D+01
  
 12  0
   s     4 1.00
  0.130100D+02  0.196850D-01
  0.196200D+01  0.137977D+00
  0.444600D+00  0.478148D+00
  0.122000D+00  0.501240D+00
   s     1 1.00
  0.122000D+00  0.100000D+01
   p     1 1.00
  0.727000D+00  0.100000D+01
  
 13  0
   s     4 1.00
  0.130100D+02  0.196850D-01
  0.196200D+01  0.137977D+00
  0.444600D+00  0.478148D+00
  0.122000D+00  0.501240D+00
   s     1 1.00
  0.122000D+00  0.100000D+01
   p     1 1.00
  0.727000D+00  0.100000D+01
  
 14  0
   s     4 1.00
  0.130100D+02  0.196850D-01
  0.196200D+01  0.137977D+00
  0.444600D+00  0.478148D+00
  0.122000D+00  0.501240D+00
   s     1 1.00
  0.122000D+00  0.100000D+01
   p     1 1.00
  0.727000D+00  0.100000D+01
  
[MO]
 Sym= __1_A__
 Ene=  0.000000000000000E+000
 Spin= Alpha
 Occup=    2.00000000000000     
                     1  2.981067738757057E-005
                     2  0.998184683567960     
                     3  8.494415704051038E-003
                     4  1.958036195256575E-003
                     5  1.754113041604745E-003
                     6  1.502646546200349E-004
                     7  4.540559329068761E-003
                     8  0.000000000000000E+000
                     9  6.986861856009517E-005
                    10 -9.535752573036933E-005
                    11  0.000000000000000E+000
                    12  1.323284473054182E-005
                    13 -1.703455656505885E-004
                    14  0.000000000000000E+000
                    15 -2.030735534021292E-004
                    16  0.000000000000000E+000
                    17  0.000000000000000E+000
                    18 -1.913949652400412E-004
                    19 -3.963312307437828E-005
                    20  4.236340366214136E-004
                    21  0.000000000000000E+000
                    22  0.000000000000000E+000
                    23 -4.017827026180876E-004
                    24  1.142519729962952E-005
                    25  0.000000000000000E+000
                    26 -1.649071494180428E-005
                    27 -5.023069049911931E-005
                    28  0.000000000000000E+000
                    29  0.000000000000000E+000
                    30  4.446047474392980E-006
                    31 -1.698921545308437E-004
                    32 -3.553157653955500E-004
                    33  2.631839688851533E-003
                    34  1.321632605908957E-004
                    35 -2.154020064375680E-004
                    36 -1.473496149434596E-005
                    37 -6.862502190945219E-003
                    38  0.000000000000000E+000
                    39 -1.853932086438779E-005
                    40  3.076357669391664E-004
                    41  0.000000000000000E+000
                    42 -3.845643906084333E-005
                    43  4.479244392952531E-003
                    44  0.000000000000000E+000
                    45 -5.515094994099056E-005
                    46  0.000000000000000E+000
                    47  0.000000000000000E+000
                    48 -3.645884623984136E-004
                    49 -6.458800255743266E-006
                    50 -4.193418150849116E-004
                    51  0.000000000000000E+000
                    52  0.000000000000000E+000
                    53  1.334323824437351E-004
                    54  8.775204570575753E-006
                    55  0.000000000000000E+000
                    56  1.356546171873341E-006
                    57 -4.785602266394935E-006
                    58  0.000000000000000E+000
                    59  0.000000000000000E+000
                    60  3.005426784341865E-006
                    61 -1.240520568486140E-004
                    62 -2.049274251878135E-004
                    63 -1.594352036979317E-003
                    64  5.730373657261441E-005
                    65  5.540566374831688E-004
                    66 -8.037157697093824E-004
                    67  9.453634871372081E-004
                    68  0.000000000000000E+000
                    69 -3.135419537584935E-005
                    70  6.081473945882973E-004
                    71  0.000000000000000E+000
                    72 -6.490454528120469E-004
                    73 -1.079146886517568E-004
                    74  0.000000000000000E+000
                    75 -1.059992420452609E-005
                    76  0.000000000000000E+000
                    77  0.000000000000000E+000
                    78 -9.661306538552754E-005
                    79 -7.096948056546128E-006
                    80 -1.038084209078431E-005
                    81  0.000000000000000E+000
                    82  0.000000000000000E+000
                    83  2.463291174060900E-005
                    84  1.908362909833963E-004
                    85  0.000000000000000E+000
                    86  2.057747410879575E-005
                    87 -4.228220547256596E-005
                    88  0.000000000000000E+000
                    89  0.000000000000000E+000
                    90 -2.688876939864825E-005
                    91 -8.456061126102058E-005
                    92 -2.199119068901552E-004
                    93 -1.690557123881428E-003
                    94  5.739483057257540E-005
                    95  5.838409840224286E-004
                    96  8.328030537639562E-004
                    97  9.914429552381275E-004
                    98  0.000000000000000E+000
                    99  2.972355403701965E-005
                   100  6.083258114579409E-004
                   101  0.000000000000000E+000
                   102  5.679422082012194E-004
                   103 -2.258962833249268E-004
                   104  0.000000000000000E+000
                   105 -9.720919891548868E-006
                   106  0.000000000000000E+000
                   107  0.000000000000000E+000
                   108 -9.957543592237314E-005
                   109  6.400643766776646E-006
                   110 -2.112278102217542E-005
                   111  0.000000000000000E+000
                   112  0.000000000000000E+000
                   113  1.973824815299267E-005
                   114 -1.795951740522301E-004
                   115  0.000000000000000E+000
                   116 -1.876438627120181E-005
                   117 -4.036158970583937E-005
                   118  0.000000000000000E+000
                   119  0.000000000000000E+000
                   120  2.242459449135042E-005
                   121 -8.625705627351575E-005
                   122 -1.470476465630697E-004
                   123 -1.759929912360077E-005
                   124  1.072200191262161E-004
                   125  1.405446385118213E-004
                   126  3.755988827723815E-005
                   127 -7.605749322404604E-004
                   128  0.000000000000000E+000
                   129  3.470808068153850E-005
                   130  3.502795147772076E-004
                   131  0.000000000000000E+000
                   132 -1.420398385944625E-004
                   133  7.640050646395882E-004
                   134  0.000000000000000E+000
                   135  9.441696396909912E-006
                   136  0.000000000000000E+000
                   137  0.000000000000000E+000
                   138  1.456901946607214E-005
                   139  1.074269922363101E-006
                   140  1.049102079253897E-004
                   141  0.000000000000000E+000
                   142  0.000000000000000E+000
                   143  1.610318528523048E-004
                   144  1.659548360531221E-004
                   145  0.000000000000000E+000
                   146 -4.438008512648017E-006
                   147 -3.198044154688911E-005
                   148  0.000000000000000E+000
                   149  0.000000000000000E+000
                   150  1.435565009121306E-006
                   151 -2.429001167880597E-005
                   152 -1.484232112378904E-004
                   153 -7.181583265189739E-006
                   154  1.112974962867733E-004
                   155  1.291078060158881E-004
                   156 -3.806679553334921E-005
                   157 -7.779502013336252E-004
                   158  0.000000000000000E+000
                   159 -3.261746003534212E-005
                   160  3.504428467511610E-004
                   161  0.000000000000000E+000
                   162  2.169721552144937E-004
                   163  6.711890968723762E-004
                   164  0.000000000000000E+000
                   165  9.222144495505675E-006
                   166  0.000000000000000E+000
                   167  0.000000000000000E+000
                   168  1.528715792714256E-005
                   169 -1.933743844067229E-006
                   170  1.113144238641271E-004
                   171  0.000000000000000E+000
                   172  0.000000000000000E+000
                   173  1.553115199952041E-004
                   174 -1.610186095902678E-004
                   175  0.000000000000000E+000
                   176  3.845207442980950E-006
                   177 -3.190227625352097E-005
                   178  0.000000000000000E+000
                   179  0.000000000000000E+000
                   180 -6.122779310273992E-007
                   181 -2.561109569054767E-005
                   182 -1.185114821797931E-004
                   183 -3.163083234944091E-004
                   184  3.370491511324991E-005
                   185  1.389903748215224E-004
                   186 -5.547807164704083E-007
                   187 -4.196638706672376E-005
                   188  0.000000000000000E+000
                   189  7.693771160426600E-006
                   190  2.202338123527646E-005
                   191  0.000000000000000E+000
                   192  5.783684355193031E-005
                   193  3.344417127197771E-005
                   194  0.000000000000000E+000
                   195 -1.706253388803515E-006
                   196  0.000000000000000E+000
                   197  0.000000000000000E+000
                   198 -2.076437423013274E-005
                   199 -5.185407885815599E-007
                   200  1.675788157552266E-005
                   201  0.000000000000000E+000
                   202  0.000000000000000E+000
                   203 -7.677296812730142E-005
                   204 -4.772294923602799E-006
                   205  0.000000000000000E+000
                   206 -4.189225889396994E-007
                   207 -5.021616100265687E-006
                   208  0.000000000000000E+000
                   209  0.000000000000000E+000
                   210  4.049750927267986E-009
                   211 -9.466192990622666E-006
                   212  2.939952128984031E-003
                   213 -1.817896162254662E-003
                   214  4.617804030861854E-004
                   215  3.575728136370856E-004
                   216  0.000000000000000E+000
                   217  3.708899607994160E-003
                   218 -2.258794506957875E-003
                   219 -4.450055392700699E-004
                   220  3.778833824283903E-004
                   221  0.000000000000000E+000
                   222 -6.182351499961486E-004
                   223 -1.864950015453539E-004
                   224 -1.524842220876151E-005
                   225 -4.287055796925912E-005
                   226  0.000000000000000E+000
                   227 -6.351831168809268E-004
                   228 -1.501423687119179E-004
                   229  1.524105897860812E-005
                   230 -4.217267156271559E-005
                   231  0.000000000000000E+000
                   232 -2.209394962005167E-004
                   233 -4.113600848461027E-004
                   234 -5.237479248932099E-006
                   235  5.161249404246763E-006
                   236  0.000000000000000E+000
                   237 -2.245988862285663E-004
                   238 -4.205818391307669E-004
                   239  4.471140272797397E-006
                   240  3.963367100951885E-006
                   241  0.000000000000000E+000
                   242  6.643847414521200E-005
                   243 -1.215142695553264E-004
                   244 -1.881404867504343E-007
                   245  1.426887136779259E-005
                   246  0.000000000000000E+000
 Sym= __2_A__
 Ene=  0.000000000000000E+000
 Spin= Alpha
 Occup=    2.00000000000000     
                     1 -4.844618567921403E-005
                     2 -2.189858903918071E-004
                     3  2.380217146287913E-003
                     4  1.040303248171319E-004
                     5  1.244702278065855E-003
                     6 -3.727967616994970E-005
                     7  3.010537644447909E-003
                     8  0.000000000000000E+000
                     9 -6.692386150632347E-007
                    10 -5.661372542331097E-005
                    11  0.000000000000000E+000
                    12  1.769931318804454E-005
                    13 -5.236847319652176E-004
                    14  0.000000000000000E+000
                    15  3.467272855497967E-005
                    16  0.000000000000000E+000
                    17  0.000000000000000E+000
                    18 -7.086777268222902E-005
                    19 -2.366104608848189E-006
                    20 -1.450391993158283E-004
                    21  0.000000000000000E+000
                    22  0.000000000000000E+000
                    23  3.799394642486980E-004
                    24  1.296163107543511E-005
                    25  0.000000000000000E+000
                    26 -2.764889258462920E-007
                    27  1.104041533878002E-004
                    28  0.000000000000000E+000
                    29  0.000000000000000E+000
                    30 -5.910603258308281E-006
                    31  1.450783300307222E-004
                    32   1.00106518330084     
                    33  9.281498190567491E-003
                    34  2.616112007549833E-003
                    35 -7.763798480856667E-003
                    36 -5.182635863121102E-006
                    37 -4.161619947222398E-003
                    38  0.000000000000000E+000
                    39 -1.359783570638737E-006
                    40  1.022985181997028E-003
                    41  0.000000000000000E+000
                    42  1.339325319918057E-005
                    43  4.416145761319266E-003
                    44  0.000000000000000E+000
                    45 -6.066074470212697E-004
                    46  0.000000000000000E+000
                    47  0.000000000000000E+000
                    48 -1.953455041145995E-004
                    49  2.193145040173131E-007
                    50  5.197999454387910E-004
                    51  0.000000000000000E+000
                    52  0.000000000000000E+000
                    53 -9.403146160490776E-004
                    54  8.747493446930468E-006
                    55  0.000000000000000E+000
                    56  4.915017237904131E-007
                    57  7.283781482607286E-005
                    58  0.000000000000000E+000
                    59  0.000000000000000E+000
                    60 -1.864719525089470E-006
                    61  4.268642600544905E-004
                    62  7.167222513830188E-003
                    63 -2.052237963038824E-003
                    64 -2.745486522926344E-004
                    65  3.020605234511614E-003
                    66  8.828576480001894E-005
                    67 -1.843916523916394E-006
                    68  0.000000000000000E+000
                    69  5.999217597927371E-004
                    70  2.851217469357670E-005
                    71  0.000000000000000E+000
                    72 -2.079898868229671E-003
                    73  9.937091499901982E-005
                    74  0.000000000000000E+000
                    75  3.267350548219704E-005
                    76  0.000000000000000E+000
                    77  0.000000000000000E+000
                    78 -2.251657596612066E-006
                    79  1.296684656954886E-005
                    80 -3.910901233173573E-004
                    81  0.000000000000000E+000
                    82  0.000000000000000E+000
                    83 -6.461896048177499E-004
                    84 -4.121698645607992E-004
                    85  0.000000000000000E+000
                    86  3.711870087828931E-005
                    87 -5.589862197452399E-005
                    88  0.000000000000000E+000
                    89  0.000000000000000E+000
                    90  5.597021039221481E-005
                    91  1.351329224378230E-004
                    92  7.174417484746080E-003
                    93 -2.057306462993074E-003
                    94 -2.739152709597483E-004
                    95  3.015275362676826E-003
                    96 -8.648189317363816E-005
                    97 -7.611908561105895E-007
                    98  0.000000000000000E+000
                    99 -5.951224826542516E-004
                   100  2.757725031592464E-005
                   101  0.000000000000000E+000
                   102  2.080958162677777E-003
                   103  1.143019797968754E-004
                   104  0.000000000000000E+000
                   105  3.303217613182921E-005
                   106  0.000000000000000E+000
                   107  0.000000000000000E+000
                   108 -1.391913011694187E-006
                   109 -1.369453048541917E-005
                   110 -3.923368827199458E-004
                   111  0.000000000000000E+000
                   112  0.000000000000000E+000
                   113 -6.515959614790224E-004
                   114  4.121586995975457E-004
                   115  0.000000000000000E+000
                   116 -3.644282289691970E-005
                   117 -5.579694915021267E-005
                   118  0.000000000000000E+000
                   119  0.000000000000000E+000
                   120 -5.478711218211670E-005
                   121  1.360680990880219E-004
                   122 -2.323813081093586E-004
                   123 -7.463518329636254E-004
                   124  2.253491538279455E-004
                   125 -1.148595641645975E-004
                   126 -1.628912172066608E-005
                   127 -2.622184210685907E-004
                   128  0.000000000000000E+000
                   129 -1.604665299278811E-005
                   130  5.352917768400316E-004
                   131  0.000000000000000E+000
                   132  3.277416179528269E-004
                   133  7.407226377906523E-004
                   134  0.000000000000000E+000
                   135  1.930080023965321E-005
                   136  0.000000000000000E+000
                   137  0.000000000000000E+000
                   138  5.120846953920600E-006
                   139  5.128335814681284E-005
                   140  1.330124985914558E-004
                   141  0.000000000000000E+000
                   142  0.000000000000000E+000
                   143  2.564184858148420E-004
                   144 -2.147891341671166E-004
                   145  0.000000000000000E+000
                   146  5.127909395147258E-006
                   147 -3.090437057514255E-005
                   148  0.000000000000000E+000
                   149  0.000000000000000E+000
                   150 -4.117632936444561E-005
                   151  2.521233042968852E-005
                   152 -2.316248041727757E-004
                   153 -7.487783448209035E-004
                   154  2.249729222756660E-004
                   155 -1.124157816739759E-004
                   156  1.705014626202579E-005
                   157 -2.618969928452899E-004
                   158  0.000000000000000E+000
                   159  1.128941964460520E-005
                   160  5.364596768889057E-004