===========================================================
===                   runc                              ===
===           version 7.0.2 , April 2021              ===
===          requires COLUMBUS version Col_7.0.2        ===
===                                                     ===
===   written by: Thomas Mueller                        ===
===   gradient ext. by: Michal Dallos                   ===
===               University of Vienna                  ===
===   maintained by: Felix Plasser                      ===
===               Loughborough University               ===
===========================================================


coremem. (seq.): 200000 MB,  coremem. (par.): 19000 MB
Vdisk size: 0 DP
Reading job control file control.run ... 
 ****** This is an 2c-QDPT MRCISD calculation ****** 
 model space size=4:0:4
SMOLCAS=/home-4/yshen57@jhu.edu/Software/Chemistry/Columbus-7.0.2_OpenMolcas-18.09-col/OpenMolcas/build
Found serial Molcas Installation at /home-4/yshen57@jhu.edu/Software/Chemistry/Columbus-7.0.2_OpenMolcas-18.09-col/OpenMolcas/build
  done 
INFO: keywords nadcoupl and seward are supported for DCI mode only!
seward specified, using also alaska
Creating various directories ... 
 done 
SMOLCAS=/home-4/yshen57@jhu.edu/Software/Chemistry/Columbus-7.0.2_OpenMolcas-18.09-col/OpenMolcas/build
PMOLCAS=
Checking for illegal keywords and keyword combinations ... done 

 Nonadiabatic coupling term calculation type: DCI+DCSF
  States involved in calcualtion:
   DRT1,state1;  DRT1,state2
   DRT1,state1;  DRT1,state3
   DRT1,state1;  DRT1,state4
   DRT1,state2;  DRT1,state3
   DRT1,state2;  DRT1,state4
   DRT1,state3;  DRT1,state4
   DRT2,state1;  DRT2,state2
   DRT2,state1;  DRT2,state3
   DRT2,state1;  DRT2,state4
   DRT2,state2;  DRT2,state3
   DRT2,state2;  DRT2,state4
   DRT2,state3;  DRT2,state4

Additional gradients computed:
   DRT1,state1
   DRT1,state2
   DRT1,state3
   DRT1,state4
   DRT2,state1
   DRT2,state2
   DRT2,state3
   DRT2,state4

Checking for complete set of input files ... 
mcscf calculation without preceeding scf calculation 
will use 
 /scratch/users/yshen57@jhu.edu/Molcas/slow/1.1/mrci/mocoef as starting MOs 
Performing coupled non-rel. SO-CI calculation, nrroots: 4 0 4
starting cidrt.x   -m 200000 < cidrtin > temp at Sat May 21 03:35:00 EDT 2022

 -------------------- cidrt.x ------------------------
 spatial symmetry:  
 total number of configurations          0
 number of reference configurations     0
 --------------------------------------------------- 
 Preparing SO cidrtin files for 1 symmetries
cat ../cidrtin | sed -e 's/^.*input the molecular spatial symmetry/1 \/ molsym/' > cidrtin.so_A 
calling cidrt.x -m 200000 < cidrtin.so_A > cidrtls.soci_A ...
Checking the DRTs for consistency ...
calling reindex.x -i 1 -m 200000  ...
done

 ++++++++++++++++++ input file generation +++++++++++++ 
 runc start: Sat May 21 03:35:19 EDT 2022
 
  runc start: Sat May 21 03:35:19 EDT 2022
 
 starting unik.gets.x > unikls at Sat May 21 03:35:19 EDT 2022

 -------------------- unik.gets.x ------------------------
 --------------------------------------------------- 
 ++++++++++++++++++++ ao integral calculation ++++++++++++++++
starting pymolcas molcas.input.seward > molcas.output.seward  at Sat May 21 03:35:19 EDT 2022

Generating link ln -s ./molcas.OrdInt ORDINT 
 -------------------- seward ------------------------
      Basis set label: N.ANILINE.........
      Basis set label: C.ANILINE.........
      Basis set label: H.ANILINE.........
  Nuclear Coordinates in                   atomic units                                   Angstrom 
     Center  Label                x              y              z                     x              y              z
        1      N1              -4.460005       0.185896       0.002741             -2.360133       0.098372       0.001451
        2      C2              -1.768407      -0.018366      -0.002888             -0.935801      -0.009719      -0.001528
        3      C3              -0.426437      -0.007149      -2.270899             -0.225661      -0.003783      -1.201708
        4      C4              -0.428623      -0.010742       2.267051             -0.226817      -0.005685       1.199672
        5      C5               2.189713      -0.000530      -2.257410              1.158746      -0.000280      -1.194570
        6      C6               2.187962      -0.001120       2.256641              1.157820      -0.000593       1.194163
        7      C7               3.514078       0.003536       0.000442              1.859570       0.001871       0.000234
        8      H8              -5.211950      -0.832966      -1.645739             -2.758045      -0.440786      -0.870887
        9      H9              -5.180063      -0.741519       1.543970             -2.741171      -0.392395       0.817034
       10      H10             -1.429890       0.000373      -4.033282             -0.756665       0.000197      -2.134321
       11      H11             -1.433036      -0.010862       4.029095             -0.758330      -0.005748       2.132105
       12      H12              3.193434      -0.000133      -4.021010              1.689893      -0.000071      -2.127827
       13      H13              3.189792      -0.002125       4.021316              1.687965      -0.001125       2.127989
       14      H14              5.542007       0.007653       0.001276              2.932704       0.004050       0.000675
 
            Nuclear Potential Energy            271.80194348 au
 --------------------------------------------------- 
  >>>>>>>>>>>>> info: preparing drt no 1 out of 1 <<<<<<
starting mcdrt.x -m 200000 < mcdrtin > mcdrtls at Sat May 21 03:40:46 EDT 2022

 -------------------- mcdrt.x ------------------------
  Spin multiplicity: singlet 
  Spatial symmetry (#): 1
  Number of Configurations:       1275 
  --------------------------------------------------- 
 starting mcuft.x at Sat May 21 03:40:46 EDT 2022

 -------------------- mcuft.x ------------------------
 --------------------------------------------------- 
 ++++++++++++++++++++ MCSCF calculation +++++++++++++++
info: taking mocoef file from /scratch/users/yshen57@jhu.edu/Molcas/slow/1.1/mrci/mocoef
adding flag 30 to mcscfin
Writing mcdenin files for mcscf.x for 1 DRTs
adding flag 26 to mcscfin
starting mcscf.x -m 200000 at Sat May 21 03:40:47 EDT 2022

 -------------------- mcscf.x ------------------------
 Individual total energies for all states: 
    DRT #1 state # 1 wt 0.250 total energy=     -285.905179594, rel. (eV)=   0.000000
    DRT #1 state # 2 wt 0.250 total energy=     -285.677179035, rel. (eV)=   6.204214
    DRT #1 state # 3 wt 0.250 total energy=     -285.669102771, rel. (eV)=   6.423980
    DRT #1 state # 4 wt 0.250 total energy=     -285.627676550, rel. (eV)=   7.551245
  --------------------------------------------------- 
 starting mcpc.x -m 200000 < mcpcin > mcpcls at Sat May 21 03:43:49 EDT 2022

 -------------------- mcpc.x ------------------------
 --------------------------------------------------- 
 starting mcpc.x -m 200000 < mcpcin > mcpcls at Sat May 21 03:43:49 EDT 2022

 -------------------- mcpc.x ------------------------
 --------------------------------------------------- 
 starting mcpc.x -m 200000 < mcpcin > mcpcls at Sat May 21 03:43:49 EDT 2022

 -------------------- mcpc.x ------------------------
 --------------------------------------------------- 
 starting mcpc.x -m 200000 < mcpcin > mcpcls at Sat May 21 03:43:49 EDT 2022

 -------------------- mcpc.x ------------------------
 --------------------------------------------------- 
 
========= state properties for state-averaged MCSCF =========
mcscf.drt1.st01.sp
starting exptvl.x -m 200000   at Sat May 21 03:43:49 EDT 2022

 -------------------- exptvl.x ------------------------
  === dipole moment === 
                     X               Y               Z   
   orign x       0.00000000      0.00000000      0.00000000
   orign y       0.00000000      0.00000000      0.00000000
   orign z       0.00000000      0.00000000      0.00000000
   nuclear      -0.94001575     -0.48452775     -0.12756837
   electronic    0.58279762     -0.09551244      0.12026042
   total        -0.35721813     -0.58004019     -0.00730795
   total Dipole moment =   1.73157260    Debye
 --------------------------------------------------- 
 mcscf.drt1.st02.sp
starting exptvl.x -m 200000   at Sat May 21 03:43:50 EDT 2022

 -------------------- exptvl.x ------------------------
  === dipole moment === 
                     X               Y               Z   
   orign x       0.00000000      0.00000000      0.00000000
   orign y       0.00000000      0.00000000      0.00000000
   orign z       0.00000000      0.00000000      0.00000000
   nuclear      -0.94001575     -0.48452775     -0.12756837
   electronic    4.89632513     -0.06680150      0.14261963
   total         3.95630938     -0.55132925      0.01505126
   total Dipole moment =  10.15318950    Debye
 --------------------------------------------------- 
 mcscf.drt1.st03.sp
starting exptvl.x -m 200000   at Sat May 21 03:43:50 EDT 2022

 -------------------- exptvl.x ------------------------
  === dipole moment === 
                     X               Y               Z   
   orign x       0.00000000      0.00000000      0.00000000
   orign y       0.00000000      0.00000000      0.00000000
   orign z       0.00000000      0.00000000      0.00000000
   nuclear      -0.94001575     -0.48452775     -0.12756837
   electronic    0.31902641     -0.03033785      0.12273623
   total        -0.62098934     -0.51486560     -0.00483214
   total Dipole moment =   2.05038607    Debye
 --------------------------------------------------- 
 mcscf.drt1.st04.sp
starting exptvl.x -m 200000   at Sat May 21 03:43:50 EDT 2022

 -------------------- exptvl.x ------------------------
  === dipole moment === 
                     X               Y               Z   
   orign x       0.00000000      0.00000000      0.00000000
   orign y       0.00000000      0.00000000      0.00000000
   orign z       0.00000000      0.00000000      0.00000000
   nuclear      -0.94001575     -0.48452775     -0.12756837
   electronic    5.95970196     -0.12539132      0.14084074
   total         5.01968621     -0.60991907      0.01327237
   total Dipole moment =  12.85266418    Debye
 --------------------------------------------------- 
  using the MCSCF MOs ... 
starting cidrt.x  -m 200000 < cidrtin.1 > cidrtls at Sat May 21 03:43:50 EDT 2022

 -------------------- cidrt.x ------------------------
 total number of orbitals            :   246
 number of frozen core orbitals      :    18
 number of frozen virtual orbitals   :     0
 number of internal orbitals         :    14
 number of external orbitals         :   214
 spatial symmetry:   a  
 
 total number of configurations  158587185
 number of reference configurations  1275
 --------------------------------------------------- 
 starting cidrt.x  -m 200000 < cidrtin.2 > cidrtls at Sat May 21 03:43:52 EDT 2022

 -------------------- cidrt.x ------------------------
 total number of orbitals            :   246
 number of frozen core orbitals      :    18
 number of frozen virtual orbitals   :     0
 number of internal orbitals         :    14
 number of external orbitals         :   214
 spatial symmetry:   a  
 
 total number of configurations  282461366
 number of reference configurations  1666
 --------------------------------------------------- 
 starting tran.x -m 200000  at Sat May 21 03:43:56 EDT 2022

 -------------------- tran.x ------------------------
 --------------------------------------------------- 
  Starting ciudgav with DRT # 1 out of 2 

 *** starting pciudg section *** 
nproc: 48 machinefile:  
assuming machinefile syntax: one host name per line optionally repeated
 section2, MPI_STARTUP:
 /software/apps/mpi/openmpi/3.1/intel/18.0/bin/mpirun -np 48  /home-4/yshen57@jhu.edu/Software/Chemistry/Columbus-7.0.2_OpenMolcas-18.09-col/Columbus/pciudg.x -m 19000 
 -------------------- pciudg.x ------------------------
 type of calculation:          mr-sdci
 number of configurations:     158587185
 total mr-sdci energy             -286.1036597551 
 last mr-sdci energy change           0.0000000000 
 residual                             0.0000060205 
  type of calculation:          mr-sdci
 number of configurations:     158587185
 total mr-sdci energy             -285.9159953850 
 last mr-sdci energy change           0.0000000000 
 residual                             0.0000091104 
  type of calculation:          mr-sdci
 number of configurations:     158587185
 total mr-sdci energy             -285.9139773165 
 last mr-sdci energy change           0.0000000000 
 residual                             0.0000024288 
  type of calculation:          mr-sdci
 number of configurations:     158587185
 total mr-sdci energy             -285.8649399858 
 last mr-sdci energy change           0.0000000000 
 residual                             0.0000071066 
  --------------------------------------------------- 
 keyinfile returned docipci=0:
starting cipc.x -m 200000 < cipcin > cipcls at Sat May 21 21:12:00 EDT 2022

 -------------------- cipc.x ------------------------
 --------------------------------------------------- 
  Starting ciudgav with DRT # 2 out of 2 

 *** starting pciudg section *** 
nproc: 48 machinefile:  
assuming machinefile syntax: one host name per line optionally repeated
 section2, MPI_STARTUP:
 /software/apps/mpi/openmpi/3.1/intel/18.0/bin/mpirun -np 48  /home-4/yshen57@jhu.edu/Software/Chemistry/Columbus-7.0.2_OpenMolcas-18.09-col/Columbus/pciudg.x -m 19000 
 -------------------- pciudg.x ------------------------
 type of calculation:          mr-sdci
 number of configurations:     282461366
 total mr-sdci energy             -285.9473343163 
 last mr-sdci energy change           0.0000000000 
 residual                             0.0000082556 
  type of calculation:          mr-sdci
 number of configurations:     282461366
 total mr-sdci energy             -285.9262483174 
 last mr-sdci energy change           0.0000000000 
 residual                             0.0000093710 
  type of calculation:          mr-sdci
 number of configurations:     282461366
 total mr-sdci energy             -285.9202085057 
 last mr-sdci energy change          -0.0000000000 
 residual                             0.0000084986 
  type of calculation:          mr-sdci
 number of configurations:     282461366
 total mr-sdci energy             -285.9170902303 
 last mr-sdci energy change           0.0000000001 
 residual                             0.0000051955 
  --------------------------------------------------- 
 keyinfile returned docipci=0:
starting cipc.x -m 200000 < cipcin > cipcls at Mon May 23 13:11:16 EDT 2022

 -------------------- cipc.x ------------------------
 --------------------------------------------------- 
 Reindex call
run_socinr: imult=1 irrep=1 
opening file =ciudgls.drt1.sp
opening file =ciudgls.drt1.sp
opening file =ciudgls.drt1.sp
opening file =ciudgls.drt1.sp
run_socinr: imult=3 irrep=1 
opening file =ciudgls.drt2.sp
opening file =ciudgls.drt2.sp
opening file =ciudgls.drt2.sp
opening file =ciudgls.drt2.sp
 copying /scratch/users/yshen57@jhu.edu/Molcas/slow/1.1/mrci/cidrtfl.so__A --> cidrtfl.so__A 
 copying /scratch/users/yshen57@jhu.edu/Molcas/slow/1.1/mrci/cidrtfl.so__A --> cidrtfl.so__A 
starting reindex.x -m 200000 > reindexls at Mon May 23 13:11:38 EDT 2022

 -------------------- reindex.x ------------------------
 --------------------------------------------------- 
 1      1        1           civfl_1_A             1      1    0+       1             1         civfl.so__A
1      1        2           civfl_1_A             1      1    0+       2    1005971284         civfl.so__A
1      1        3           civfl_1_A             1      1    0+       3    2011942567         civfl.so__A
1      1        4           civfl_1_A             1      1    0+       4    3017913850         civfl.so__A
3      1        1           civfl_3_A             1      3    0+       5    4023885133         civfl.so__A
3      1        1           civfl_3_A             1      3    1+       6    5029856416         civfl.so__A
3      1        1           civfl_3_A             1      3    1-       7    6035827699         civfl.so__A
3      1        2           civfl_3_A             1      3    0+       8    7041798982         civfl.so__A
3      1        2           civfl_3_A             1      3    1+       9    8047770265         civfl.so__A
3      1        2           civfl_3_A             1      3    1-      10    9053741548         civfl.so__A
3      1        3           civfl_3_A             1      3    0+      11   10059712831         civfl.so__A
3      1        3           civfl_3_A             1      3    1+      12   11065684114         civfl.so__A
3      1        3           civfl_3_A             1      3    1-      13   12071655397         civfl.so__A
3      1        4           civfl_3_A             1      3    0+      14   13077626680         civfl.so__A
3      1        4           civfl_3_A             1      3    1+      15   14083597963         civfl.so__A
3      1        4           civfl_3_A             1      3    1-      16   15089569246         civfl.so__A
 Executing ciudg.x  for gamma =A ...

 *** starting pciudg section *** 
nproc: 48 machinefile:  
assuming machinefile syntax: one host name per line optionally repeated
 section2, MPI_STARTUP:
 /software/apps/mpi/openmpi/3.1/intel/18.0/bin/mpirun -np 48  /home-4/yshen57@jhu.edu/Software/Chemistry/Columbus-7.0.2_OpenMolcas-18.09-col/Columbus/pciudg.x -m 19000 
 -------------------- pciudg.x ------------------------
 type of calculation:          mr-sdci
 number of configurations:     1005971283
 total mr-sdci energy             -286.1036597584 
 last mr-sdci energy change           0.0000000033 
 residual                            35.8580000000 
  type of calculation:          mr-sdci
 number of configurations:     1005971283
 total mr-sdci energy             -285.9473343205 
 last mr-sdci energy change           0.0313390000 
 residual                            35.7020000000 
  type of calculation:          mr-sdci
 number of configurations:     1005971283
 total mr-sdci energy             -285.9473343202 
 last mr-sdci energy change           0.0333570000 
 residual                            35.7020000000 
  type of calculation:          mr-sdci
 number of configurations:     1005971283
 total mr-sdci energy             -285.9473343194 
 last mr-sdci energy change           0.0823940000 
 residual                            35.7020000000 
  type of calculation:          mr-sdci
 number of configurations:     1005971283
 total mr-sdci energy             -285.9262483200 
 last mr-sdci energy change          -0.0210860000 
 residual                            35.6810000000 
  type of calculation:          mr-sdci
 number of configurations:     1005971283
 total mr-sdci energy             -285.9262483193 
 last mr-sdci energy change          -0.0210860000 
 residual                            35.6810000000 
  type of calculation:          mr-sdci
 number of configurations:     1005971283
 total mr-sdci energy             -285.9262483181 
 last mr-sdci energy change          -0.0210860000 
 residual                            35.6810000000 
  type of calculation:          mr-sdci
 number of configurations:     1005971283
 total mr-sdci energy             -285.9202085140 
 last mr-sdci energy change          -0.0060398000 
 residual                            35.6750000000 
  type of calculation:          mr-sdci
 number of configurations:     1005971283
 total mr-sdci energy             -285.9202085133 
 last mr-sdci energy change          -0.0060398000 
 residual                            35.6750000000 
  type of calculation:          mr-sdci
 number of configurations:     1005971283
 total mr-sdci energy             -285.9202085064 
 last mr-sdci energy change          -0.0060398000 
 residual                            35.6750000000 
  type of calculation:          mr-sdci
 number of configurations:     1005971283
 total mr-sdci energy             -285.9170902422 
 last mr-sdci energy change          -0.0031183000 
 residual                            35.6710000000 
  type of calculation:          mr-sdci
 number of configurations:     1005971283
 total mr-sdci energy             -285.9170902205 
 last mr-sdci energy change          -0.0031183000 
 residual                            35.6710000000 
  type of calculation:          mr-sdci
 number of configurations:     1005971283
 total mr-sdci energy             -285.9170902172 
 last mr-sdci energy change          -0.0031183000 
 residual                            35.6710000000 
  type of calculation:          mr-sdci
 number of configurations:     1005971283
 total mr-sdci energy             -285.9159953638 
 last mr-sdci energy change          -0.0010949000 
 residual                            35.6700000000 
  type of calculation:          mr-sdci
 number of configurations:     1005971283
 total mr-sdci energy             -285.9139773131 
 last mr-sdci energy change          -0.0031129000 
 residual                            35.6680000000 
  type of calculation:          mr-sdci
 number of configurations:     1005971283
 total mr-sdci energy             -285.8649399850 
 last mr-sdci energy change          -0.0521500000 
 residual                            35.6190000000 
  --------------------------------------------------- 
 ************* Results for Spin-Orbit CI gamma=A **************** 
Final spin-orbit CI state energies: 


-------------- HT matrix in AU ----------------  
-35.858011    
 0.000000    -35.670346    
 0.000000     0.000000    -35.668328    
 0.000000     0.000000     0.000000    -35.619291    
 0.000005     0.000010     0.000002     0.000000    -35.701685    
-0.000000    -0.000001     0.000001     0.000000     0.000000    -35.701685    
-0.000002    -0.000003     0.000003    -0.000002    -0.000000     0.000000    -35.701685    
-0.000002     0.000000     0.000000    -0.000006     0.000000     0.000001    -0.000001    -35.680599    
 0.000002    -0.000001    -0.000000     0.000000    -0.000001     0.000000    -0.000001    -0.000000    -35.680599    
 0.000007     0.000002     0.000001     0.000001     0.000001     0.000001     0.000000    -0.000000    -0.000000    -35.680599    
-0.000016    -0.000003    -0.000001     0.000000     0.000000     0.000001    -0.000000     0.000000     0.000000    -0.000001    -35.674559    
 0.000001     0.000000    -0.000001     0.000000    -0.000001     0.000000    -0.000007    -0.000000     0.000000    -0.000001    -0.000000    -35.674559    
 0.000004     0.000000     0.000002    -0.000002     0.000000     0.000007     0.000000     0.000001     0.000001     0.000000     0.000000     0.000000    -35.674559    
 0.000015    -0.000004    -0.000001    -0.000001     0.000000    -0.000001     0.000000     0.000000     0.000004     0.000000     0.000000     0.000001    -0.000000    -35.671441    
-0.000001    -0.000000     0.000001     0.000001     0.000001     0.000000     0.000008    -0.000004     0.000000    -0.000000    -0.000001     0.000000    -0.000005    -0.000000    -35.671441    
-0.000004     0.000001    -0.000002     0.000000    -0.000000    -0.000008     0.000000    -0.000000     0.000000     0.000000     0.000000     0.000005     0.000000    -0.000000    -0.000000    -35.671441    
-------------- HT matrix in eV ---------------- 
 -975.746   
    0.000    -970.640   
    0.000       0.000    -970.585   
    0.000       0.000       0.000    -969.250   
    0.000       0.000       0.000       0.000    -971.492   
   -0.000      -0.000       0.000       0.000       0.000    -971.492   
   -0.000      -0.000       0.000      -0.000      -0.000       0.000    -971.492   
   -0.000       0.000       0.000      -0.000       0.000       0.000      -0.000    -970.919   
    0.000      -0.000      -0.000       0.000      -0.000       0.000      -0.000      -0.000    -970.919   
    0.000       0.000       0.000       0.000       0.000       0.000       0.000      -0.000      -0.000    -970.919   
   -0.000      -0.000      -0.000       0.000       0.000       0.000      -0.000       0.000       0.000      -0.000    -970.754   
    0.000       0.000      -0.000       0.000      -0.000       0.000      -0.000      -0.000       0.000      -0.000      -0.000    -970.754   
    0.000       0.000       0.000      -0.000       0.000       0.000       0.000       0.000       0.000       0.000       0.000       0.000    -970.754   
    0.000      -0.000      -0.000      -0.000       0.000      -0.000       0.000       0.000       0.000       0.000       0.000       0.000      -0.000    -970.669   
   -0.000      -0.000       0.000       0.000       0.000       0.000       0.000      -0.000       0.000      -0.000      -0.000       0.000      -0.000      -0.000    -970.669   
   -0.000       0.000      -0.000       0.000      -0.000      -0.000       0.000      -0.000       0.000       0.000       0.000       0.000       0.000      -0.000      -0.000    -970.669   
-------------- HT matrix in cm-1 ------------------- 
Eref = -35.85801059
     0.00   
     0.00    41187.64   
     0.00        0.00    41630.55   
     0.00        0.00        0.00    52393.02   
     1.08        2.12        0.42        0.00    34309.53   
    -0.08       -0.12        0.25        0.04        0.00    34309.53   
    -0.34       -0.58        0.59       -0.41        0.00        0.00    34309.53   
    -0.45        0.07        0.01       -1.35        0.00        0.23       -0.12    38937.38   
     0.41       -0.23       -0.07        0.04       -0.23        0.00       -0.19        0.00    38937.38   
     1.55        0.54        0.20        0.20        0.12        0.19        0.00        0.00        0.00    38937.38   
    -3.53       -0.70       -0.15        0.10        0.00        0.27       -0.04        0.00        0.07       -0.32    40262.96   
     0.20        0.07       -0.15        0.10       -0.27        0.00       -1.46       -0.07        0.00       -0.16        0.00    40262.96   
     0.95        0.02        0.52       -0.53        0.04        1.46        0.00        0.32        0.16        0.00        0.00        0.00    40262.96   
     3.36       -0.85       -0.23       -0.15        0.00       -0.31        0.04        0.00        0.87        0.05        0.00        0.18       -0.02    40947.35   
    -0.17       -0.02        0.17        0.11        0.31        0.00        1.72       -0.87        0.00       -0.05       -0.18        0.00       -1.17        0.00    40947.35   
    -0.83        0.26       -0.44        0.08       -0.04       -1.72        0.00       -0.05        0.05        0.00        0.02        1.17        0.00        0.00        0.00    40947.35   


Spin-Orbit CI: perturbational estimate of Spin-Orbit CI energies and wavefunctions 
                SO   1         SO   2         SO   3         SO   4         SO   5         SO   6         SO   7         SO   8

   energy  -286.10365976  -285.94733432  -285.94733432  -285.94733432  -285.92624832  -285.92624832  -285.92624832  -285.92020851
 
   NR   1     0.99999999     0.00000695    -0.00000017     0.00003251     0.00000760     0.00000031     0.00004199    -0.00000809
   NR   2     0.00000000    -0.00005299     0.00000133    -0.00031552     0.00003491     0.00016621    -0.00019976    -0.00010363
   NR   3     0.00000000     0.00009176     0.00000862    -0.00004862     0.00000502     0.00004439    -0.00006573     0.00037883
   NR   4    -0.00000000    -0.00002088     0.00000844    -0.00000236    -0.00009804    -0.00000813    -0.00002458    -0.00004217
   NR   5    -0.00003162    -0.10262650     0.01840634     0.99454960     0.00000388    -0.00005395     0.00001276    -0.00002378
   NR   6     0.00000222    -0.28697279    -0.95786493    -0.01188501    -0.00005107    -0.00001551     0.00003380    -0.00022847
   NR   7     0.00001003    -0.95242547     0.28662841    -0.10358445     0.00003106    -0.00003597    -0.00000795    -0.00009563
   NR   8     0.00001166    -0.00001142     0.00005441    -0.00000218    -0.99070229    -0.09446132    -0.09790693    -0.00023822
   NR   9    -0.00001046    -0.00004327     0.00001242     0.00004438    -0.11725042     0.95783349     0.26231113    -0.00011519
   NR  10    -0.00003972     0.00001427     0.00003799    -0.00002608    -0.06900027    -0.27135188     0.96000363    -0.00001500
   NR  11     0.00008776     0.00000747     0.00004601    -0.00000010    -0.00001078    -0.00011333     0.00021854    -0.13171405
   NR  12    -0.00000494    -0.00023765     0.00007100     0.00002063    -0.00005775    -0.00003705     0.00010956     0.39267963
   NR  13    -0.00002374     0.00007085     0.00023412    -0.00000316     0.00025269    -0.00009144    -0.00000771    -0.91019274
   NR  14    -0.00008197    -0.00000735    -0.00004661     0.00000004     0.00005230    -0.00040801    -0.00013571    -0.00013051
   NR  15     0.00000413     0.00025158    -0.00007508    -0.00001966    -0.00043016    -0.00004774    -0.00001809    -0.00159610
   NR  16     0.00002014    -0.00007496    -0.00024808     0.00000326    -0.00001983    -0.00002636    -0.00000888    -0.00066994

                SO   9         SO  10         SO  11         SO  12         SO  13         SO  14         SO  15         SO  16

   energy  -285.92020851  -285.92020851  -285.91709024  -285.91709022  -285.91709022  -285.91599536  -285.91397731  -285.86493998
 
   NR   1    -0.00000990    -0.00009015     0.00008439     0.00000051     0.00000459     0.00000023    -0.00000001    -0.00000000
   NR   2     0.00004538     0.00074853     0.00367636    -0.00022794    -0.00003788    -0.99999284    -0.00000071     0.00000000
   NR   3     0.00004269     0.00016440     0.00018029     0.00074776     0.00009829     0.00000132    -0.99999960    -0.00000000
   NR   4    -0.00000933    -0.00001421     0.00001409    -0.00000131     0.00001066     0.00000005    -0.00000002     0.99999999
   NR   5     0.00004009    -0.00000109     0.00000292    -0.00001592    -0.00004440    -0.00030834    -0.00005764     0.00000005
   NR   6    -0.00009797     0.00001186     0.00001489    -0.00025691     0.00005545     0.00001781    -0.00003429     0.00000205
   NR   7     0.00022498    -0.00000873     0.00000726    -0.00005302    -0.00025356     0.00008359    -0.00007998    -0.00002254
   NR   8    -0.00004780    -0.00003392     0.00000318     0.00006857     0.00042799    -0.00003075    -0.00000273    -0.00010032
   NR   9    -0.00004860     0.00003286     0.00041433     0.00012315    -0.00002392     0.00010422     0.00002481     0.00000273
   NR  10     0.00012042    -0.00024005     0.00002332     0.00001039     0.00002368    -0.00023937    -0.00007551     0.00001462
   NR  11    -0.04456858     0.99028498    -0.00001330     0.00008506     0.00024281     0.00075275     0.00011107     0.00000811
   NR  12    -0.91960974     0.01084100    -0.00015174     0.00169021    -0.00036182    -0.00007527     0.00011246     0.00000814
   NR  13    -0.39029281    -0.13862712    -0.00004096     0.00035141     0.00168034    -0.00002745    -0.00038383    -0.00004399
   NR  14     0.00022184    -0.00000599     0.97240530     0.22912826    -0.04376505     0.00352435     0.00034230    -0.00001294
   NR  15    -0.00068195     0.00001476     0.00526648    -0.20913213    -0.97787150     0.00010419    -0.00025216     0.00000997
   NR  16     0.00157974    -0.00005189    -0.23320903     0.95066309    -0.20456947    -0.00106621     0.00064851     0.00000670
rescaling new expansion vector ... old norm=   4379.3349863437

 model space basis from reindexls .. 
 --SO-CI-------         -----NR-CI-------             ---model space---- 
 Gamma  root             S   irrep   root                S   ms* 
A          1             1   A         1                 1   0+
A          2             1   A         2                 1   0+
A          3             1   A         3                 1   0+
A          4             1   A         4                 1   0+
A          5             3   A         1                 3   0+
A          6             3   A         1                 3   1+
A          7             3   A         1                 3   1-
A          8             3   A         2                 3   0+
A          9             3   A         2                 3   1+
A         10             3   A         2                 3   1-
A         11             3   A         3                 3   0+
A         12             3   A         3                 3   1+
A         13             3   A         3                 3   1-
A         14             3   A         4                 3   0+
A         15             3   A         4                 3   1+
A         16             3   A         4                 3   1-

************************** SUMMARY *********************************

--------------  SO matrix for irrep A in eV ---------------- 
|1,0+;1,A,1>  -975.746   
|1,0+;1,A,2>     0.000    -970.640   
|1,0+;1,A,3>     0.000       0.000    -970.585   
|1,0+;1,A,4>     0.000       0.000       0.000    -969.250   
|3,0+;3,A,1>     0.000       0.000       0.000       0.000    -971.492   
|3,1+;3,A,1>    -0.000      -0.000       0.000       0.000       0.000    -971.492   
|3,1-;3,A,1>    -0.000      -0.000       0.000      -0.000      -0.000       0.000    -971.492   
|3,0+;3,A,2>    -0.000       0.000       0.000      -0.000       0.000       0.000      -0.000    -970.919   
|3,1+;3,A,2>     0.000      -0.000      -0.000       0.000      -0.000       0.000      -0.000      -0.000    -970.919   
|3,1-;3,A,2>     0.000       0.000       0.000       0.000       0.000       0.000       0.000      -0.000      -0.000    -970.919   
|3,0+;3,A,3>    -0.000      -0.000      -0.000       0.000       0.000       0.000      -0.000       0.000       0.000      -0.000    -970.754   
|3,1+;3,A,3>     0.000       0.000      -0.000       0.000      -0.000       0.000      -0.000      -0.000       0.000      -0.000      -0.000    -970.754   
|3,1-;3,A,3>     0.000       0.000       0.000      -0.000       0.000       0.000       0.000       0.000       0.000       0.000       0.000       0.000    -970.754   
|3,0+;3,A,4>     0.000      -0.000      -0.000      -0.000       0.000      -0.000       0.000       0.000       0.000       0.000       0.000       0.000      -0.000    -970.669   
|3,1+;3,A,4>    -0.000      -0.000       0.000       0.000       0.000       0.000       0.000      -0.000       0.000      -0.000      -0.000       0.000      -0.000      -0.000    -970.669   
|3,1-;3,A,4>    -0.000       0.000      -0.000       0.000      -0.000      -0.000       0.000      -0.000       0.000       0.000       0.000       0.000       0.000      -0.000      -0.000    -970.669   

--------------  SO matrix for irrep A in cm-1 ------------------- 
Eref = -35.85801059
|1,0+;1,A,1>      0.00   
|1,0+;1,A,2>      0.00    41187.64   
|1,0+;1,A,3>      0.00        0.00    41630.55   
|1,0+;1,A,4>      0.00        0.00        0.00    52393.02   
|3,0+;3,A,1>      1.08        2.12        0.42        0.00    34309.53   
|3,1+;3,A,1>     -0.08       -0.12        0.25        0.04        0.00    34309.53   
|3,1-;3,A,1>     -0.34       -0.58        0.59       -0.41        0.00        0.00    34309.53   
|3,0+;3,A,2>     -0.45        0.07        0.01       -1.35        0.00        0.23       -0.12    38937.38   
|3,1+;3,A,2>      0.41       -0.23       -0.07        0.04       -0.23        0.00       -0.19        0.00    38937.38   
|3,1-;3,A,2>      1.55        0.54        0.20        0.20        0.12        0.19        0.00        0.00        0.00    38937.38   
|3,0+;3,A,3>     -3.53       -0.70       -0.15        0.10        0.00        0.27       -0.04        0.00        0.07       -0.32    40262.96   
|3,1+;3,A,3>      0.20        0.07       -0.15        0.10       -0.27        0.00       -1.46       -0.07        0.00       -0.16        0.00    40262.96   
|3,1-;3,A,3>      0.95        0.02        0.52       -0.53        0.04        1.46        0.00        0.32        0.16        0.00        0.00        0.00    40262.96   
|3,0+;3,A,4>      3.36       -0.85       -0.23       -0.15        0.00       -0.31        0.04        0.00        0.87        0.05        0.00        0.18       -0.02    40947.35   
|3,1+;3,A,4>     -0.17       -0.02        0.17        0.11        0.31        0.00        1.72       -0.87        0.00       -0.05       -0.18        0.00       -1.17        0.00    40947.35   
|3,1-;3,A,4>     -0.83        0.26       -0.44        0.08       -0.04       -1.72        0.00       -0.05        0.05        0.00        0.02        1.17        0.00        0.00        0.00    40947.35   


 ** perturbational estimate of Spin-Orbit CI energies and wavefunctions in model space basis** 

                      A  1         A  2         A  3         A  4         A  5         A  6         A  7         A  8

            energy  -286.10365976  -285.94733432  -285.94733432  -285.94733432  -285.92624832  -285.92624832  -285.92624832  -285.92020851
          
   |1,0+;1,A,1>     0.99999999     0.00000695    -0.00000017     0.00003251     0.00000760     0.00000031     0.00004199    -0.00000809
   |1,0+;1,A,2>     0.00000000    -0.00005299     0.00000133    -0.00031552     0.00003491     0.00016621    -0.00019976    -0.00010363
   |1,0+;1,A,3>     0.00000000     0.00009176     0.00000862    -0.00004862     0.00000502     0.00004439    -0.00006573     0.00037883
   |1,0+;1,A,4>    -0.00000000    -0.00002088     0.00000844    -0.00000236    -0.00009804    -0.00000813    -0.00002458    -0.00004217
   |3,0+;3,A,1>    -0.00003162    -0.10262650     0.01840634     0.99454960     0.00000388    -0.00005395     0.00001276    -0.00002378
   |3,1+;3,A,1>     0.00000222    -0.28697279    -0.95786493    -0.01188501    -0.00005107    -0.00001551     0.00003380    -0.00022847
   |3,1-;3,A,1>     0.00001003    -0.95242547     0.28662841    -0.10358445     0.00003106    -0.00003597    -0.00000795    -0.00009563
   |3,0+;3,A,2>     0.00001166    -0.00001142     0.00005441    -0.00000218    -0.99070229    -0.09446132    -0.09790693    -0.00023822
   |3,1+;3,A,2>    -0.00001046    -0.00004327     0.00001242     0.00004438    -0.11725042     0.95783349     0.26231113    -0.00011519
   |3,1-;3,A,2>    -0.00003972     0.00001427     0.00003799    -0.00002608    -0.06900027    -0.27135188     0.96000363    -0.00001500
   |3,0+;3,A,3>     0.00008776     0.00000747     0.00004601    -0.00000010    -0.00001078    -0.00011333     0.00021854    -0.13171405
   |3,1+;3,A,3>    -0.00000494    -0.00023765     0.00007100     0.00002063    -0.00005775    -0.00003705     0.00010956     0.39267963
   |3,1-;3,A,3>    -0.00002374     0.00007085     0.00023412    -0.00000316     0.00025269    -0.00009144    -0.00000771    -0.91019274
   |3,0+;3,A,4>    -0.00008197    -0.00000735    -0.00004661     0.00000004     0.00005230    -0.00040801    -0.00013571    -0.00013051
   |3,1+;3,A,4>     0.00000413     0.00025158    -0.00007508    -0.00001966    -0.00043016    -0.00004774    -0.00001809    -0.00159610
   |3,1-;3,A,4>     0.00002014    -0.00007496    -0.00024808     0.00000326    -0.00001983    -0.00002636    -0.00000888    -0.00066994

                      A  9         A 10         A 11         A 12         A 13         A 14         A 15         A 16

            energy  -285.92020851  -285.92020851  -285.91709024  -285.91709022  -285.91709022  -285.91599536  -285.91397731  -285.86493998
          
   |1,0+;1,A,1>    -0.00000990    -0.00009015     0.00008439     0.00000051     0.00000459     0.00000023    -0.00000001    -0.00000000
   |1,0+;1,A,2>     0.00004538     0.00074853     0.00367636    -0.00022794    -0.00003788    -0.99999284    -0.00000071     0.00000000
   |1,0+;1,A,3>     0.00004269     0.00016440     0.00018029     0.00074776     0.00009829     0.00000132    -0.99999960    -0.00000000
   |1,0+;1,A,4>    -0.00000933    -0.00001421     0.00001409    -0.00000131     0.00001066     0.00000005    -0.00000002     0.99999999
   |3,0+;3,A,1>     0.00004009    -0.00000109     0.00000292    -0.00001592    -0.00004440    -0.00030834    -0.00005764     0.00000005
   |3,1+;3,A,1>    -0.00009797     0.00001186     0.00001489    -0.00025691     0.00005545     0.00001781    -0.00003429     0.00000205
   |3,1-;3,A,1>     0.00022498    -0.00000873     0.00000726    -0.00005302    -0.00025356     0.00008359    -0.00007998    -0.00002254
   |3,0+;3,A,2>    -0.00004780    -0.00003392     0.00000318     0.00006857     0.00042799    -0.00003075    -0.00000273    -0.00010032
   |3,1+;3,A,2>    -0.00004860     0.00003286     0.00041433     0.00012315    -0.00002392     0.00010422     0.00002481     0.00000273
   |3,1-;3,A,2>     0.00012042    -0.00024005     0.00002332     0.00001039     0.00002368    -0.00023937    -0.00007551     0.00001462
   |3,0+;3,A,3>    -0.04456858     0.99028498    -0.00001330     0.00008506     0.00024281     0.00075275     0.00011107     0.00000811
   |3,1+;3,A,3>    -0.91960974     0.01084100    -0.00015174     0.00169021    -0.00036182    -0.00007527     0.00011246     0.00000814
   |3,1-;3,A,3>    -0.39029281    -0.13862712    -0.00004096     0.00035141     0.00168034    -0.00002745    -0.00038383    -0.00004399
   |3,0+;3,A,4>     0.00022184    -0.00000599     0.97240530     0.22912826    -0.04376505     0.00352435     0.00034230    -0.00001294
   |3,1+;3,A,4>    -0.00068195     0.00001476     0.00526648    -0.20913213    -0.97787150     0.00010419    -0.00025216     0.00000997
   |3,1-;3,A,4>     0.00157974    -0.00005189    -0.23320903     0.95066309    -0.20456947    -0.00106621     0.00064851     0.00000670
rescaling new expansion vector ... old norm=   4379.3349863437

Sorted Energies:
1  -286.10365976 
2  -285.94733432 
3  -285.94733432 
4  -285.94733432 
5  -285.92624832 
6  -285.92624832 
7  -285.92624832 
8  -285.92020851 
9  -285.92020851 
10  -285.92020851 
11  -285.91709024 
12  -285.91709022 
13  -285.91709022 
14  -285.91599536 
15  -285.91397731 
16  -285.86493998 
Not computing transition moment with identical bra and ket.
 Calculating transition moment for (1,1) => (1,2)
 starting transci.x -m 200000 at Mon May 23 15:10:35 EDT 2022

 -------------------- transci.x ------------------------

                          State No. 1            State No. 2

   Space symmetry:           a                      a   
   No. of CSFs:          ********               ********
   State energies:      -286.10365976          -285.91599538  a.u.

   Transition energy:     0.18766437  a.u.
   Transition energy:     5.11        eV

       Transition moment components:

                 x            y            z

electron          0.065659     0.067176    -0.053584  e*bohr
frozen core       0.000000     0.000000     0.000000  e*bohr
total (elec)      0.065659     0.067176    -0.053584  e*bohr


   Tr.dipole length:     0.108143    e*bohr
   Oscillator strength :  0.001463
   Einstein A coef.:     0.1656E+07  1/sec
   Einstein B coef.:     0.4746E+07  sec/g

                 x            y            z

<L> electron     0.025979     0.141401    -0.364504  e*bohr


   <L> value length:     0.391832    e*bohr
 --------------------------------------------------- 
  Calculating transition moment for (1,1) => (1,3)
 starting transci.x -m 200000 at Mon May 23 15:12:54 EDT 2022

 -------------------- transci.x ------------------------

                          State No. 1            State No. 2

   Space symmetry:           a                      a   
   No. of CSFs:          ********               ********
   State energies:      -286.10365976          -285.91397732  a.u.

   Transition energy:     0.18968244  a.u.
   Transition energy:     5.16        eV

       Transition moment components:

                 x            y            z

electron          0.001782     0.012626     0.287054  e*bohr
frozen core       0.000000     0.000000     0.000000  e*bohr
total (elec)      0.001782     0.012626     0.287054  e*bohr


   Tr.dipole length:     0.287337    e*bohr
   Oscillator strength :  0.010440
   Einstein A coef.:     0.1207E+08  1/sec
   Einstein B coef.:     0.3351E+08  sec/g

                 x            y            z

<L> electron    -0.015508    -0.451125    -0.081031  e*bohr


   <L> value length:     0.458607    e*bohr
 --------------------------------------------------- 
  Calculating transition moment for (1,1) => (1,4)
 starting transci.x -m 200000 at Mon May 23 15:15:09 EDT 2022

 -------------------- transci.x ------------------------

                          State No. 1            State No. 2

   Space symmetry:           a                      a   
   No. of CSFs:          ********               ********
   State energies:      -286.10365976          -285.86493999  a.u.

   Transition energy:     0.23871977  a.u.
   Transition energy:     6.50        eV

       Transition moment components:

                 x            y            z

electron          0.017853     0.000259    -0.038461  e*bohr
frozen core       0.000000     0.000000     0.000000  e*bohr
total (elec)      0.017853     0.000259    -0.038461  e*bohr


   Tr.dipole length:     0.042403    e*bohr
   Oscillator strength :  0.000286
   Einstein A coef.:     0.5239E+06  1/sec
   Einstein B coef.:     0.7297E+06  sec/g

                 x            y            z

<L> electron    -0.458968     0.045874    -0.003198  e*bohr


   <L> value length:     0.461266    e*bohr
 --------------------------------------------------- 
 Not computing transition moment with identical bra and ket.
 Calculating transition moment for (1,2) => (1,3)
 starting transci.x -m 200000 at Mon May 23 15:17:22 EDT 2022

 -------------------- transci.x ------------------------

                          State No. 1            State No. 2

   Space symmetry:           a                      a   
   No. of CSFs:          ********               ********
   State energies:      -285.91599538          -285.91397732  a.u.

   Transition energy:     0.00201807  a.u.
   Transition energy:     0.05        eV

       Transition moment components:

                 x            y            z

electron         -0.942581     0.000598     0.070825  e*bohr
frozen core       0.000000     0.000000     0.000000  e*bohr
total (elec)     -0.942581     0.000598     0.070825  e*bohr


   Tr.dipole length:     0.945239    e*bohr
   Oscillator strength :  0.001202
   Einstein A coef.:     0.1573E+03  1/sec
   Einstein B coef.:     0.3626E+09  sec/g

                 x            y            z

<L> electron    -0.122956    -0.037059     0.001301  e*bohr


   <L> value length:     0.128426    e*bohr
 --------------------------------------------------- 
  Calculating transition moment for (1,2) => (1,4)
 starting transci.x -m 200000 at Mon May 23 15:19:32 EDT 2022

 -------------------- transci.x ------------------------

                          State No. 1            State No. 2

   Space symmetry:           a                      a   
   No. of CSFs:          ********               ********
   State energies:      -285.91599538          -285.86493999  a.u.

   Transition energy:     0.05105540  a.u.
   Transition energy:     1.39        eV

       Transition moment components:

                 x            y            z

electron          0.029407     0.001546     0.142603  e*bohr
frozen core       0.000000     0.000000     0.000000  e*bohr
total (elec)      0.029407     0.001546     0.142603  e*bohr


   Tr.dipole length:     0.145611    e*bohr
   Oscillator strength :  0.000722
   Einstein A coef.:     0.6044E+05  1/sec
   Einstein B coef.:     0.8604E+07  sec/g

                 x            y            z

<L> electron     0.023760    -0.630234    -0.037223  e*bohr


   <L> value length:     0.631780    e*bohr
 --------------------------------------------------- 
 Not computing transition moment with identical bra and ket.
 Calculating transition moment for (1,3) => (1,4)
 starting transci.x -m 200000 at Mon May 23 15:21:44 EDT 2022

 -------------------- transci.x ------------------------

                          State No. 1            State No. 2

   Space symmetry:           a                      a   
   No. of CSFs:          ********               ********
   State energies:      -285.91397732          -285.86493999  a.u.

   Transition energy:     0.04903733  a.u.
   Transition energy:     1.33        eV

       Transition moment components:

                 x            y            z

electron         -0.095545    -0.042494     0.026364  e*bohr
frozen core       0.000000     0.000000     0.000000  e*bohr
total (elec)     -0.095545    -0.042494     0.026364  e*bohr


   Tr.dipole length:     0.107841    e*bohr
   Oscillator strength :  0.000380
   Einstein A coef.:     0.2937E+05  1/sec
   Einstein B coef.:     0.4720E+07  sec/g

                 x            y            z

<L> electron    -0.001337    -0.098725     0.129684  e*bohr


   <L> value length:     0.162992    e*bohr
 --------------------------------------------------- 
 Not computing transition moment with identical bra and ket.
Not computing transition moment with identical bra and ket.
 Calculating transition moment for (2,1) => (2,2)
 starting transci.x -m 200000 at Mon May 23 15:23:56 EDT 2022

 -------------------- transci.x ------------------------

                          State No. 1            State No. 2

   Space symmetry:           a                      a   
   No. of CSFs:          ********               ********
   State energies:      -285.94733432          -285.92624832  a.u.

   Transition energy:     0.02108600  a.u.
   Transition energy:     0.57        eV

       Transition moment components:

                 x            y            z

electron          0.021141     0.009377    -0.140472  e*bohr
frozen core       0.000000     0.000000     0.000000  e*bohr
total (elec)      0.021141     0.009377    -0.140472  e*bohr


   Tr.dipole length:     0.142364    e*bohr
   Oscillator strength :  0.000285
   Einstein A coef.:     0.4070E+04  1/sec
   Einstein B coef.:     0.8225E+07  sec/g

                 x            y            z

<L> electron     0.016730    -0.894376    -0.012983  e*bohr


   <L> value length:     0.894627    e*bohr
 --------------------------------------------------- 
  Calculating transition moment for (2,1) => (2,3)
 starting transci.x -m 200000 at Mon May 23 15:27:59 EDT 2022

 -------------------- transci.x ------------------------

                          State No. 1            State No. 2

   Space symmetry:           a                      a   
   No. of CSFs:          ********               ********
   State energies:      -285.94733432          -285.92020851  a.u.

   Transition energy:     0.02712581  a.u.
   Transition energy:     0.74        eV

       Transition moment components:

                 x            y            z

electron          0.116657     0.071657     0.025344  e*bohr
frozen core       0.000000     0.000000     0.000000  e*bohr
total (elec)      0.116657     0.071657     0.025344  e*bohr


   Tr.dipole length:     0.139233    e*bohr
   Oscillator strength :  0.000351
   Einstein A coef.:     0.8287E+04  1/sec
   Einstein B coef.:     0.7867E+07  sec/g

                 x            y            z

<L> electron     0.005504     0.053034    -0.102630  e*bohr


   <L> value length:     0.115653    e*bohr
 --------------------------------------------------- 
  Calculating transition moment for (2,1) => (2,4)
 starting transci.x -m 200000 at Mon May 23 15:31:59 EDT 2022

 -------------------- transci.x ------------------------

                          State No. 1            State No. 2

   Space symmetry:           a                      a   
   No. of CSFs:          ********               ********
   State energies:      -285.94733432          -285.91709023  a.u.

   Transition energy:     0.03024409  a.u.
   Transition energy:     0.82        eV

       Transition moment components:

                 x            y            z

electron         -0.324261    -0.060673    -0.020751  e*bohr
frozen core       0.000000     0.000000     0.000000  e*bohr
total (elec)     -0.324261    -0.060673    -0.020751  e*bohr


   Tr.dipole length:     0.330541    e*bohr
   Oscillator strength :  0.002203
   Einstein A coef.:     0.6474E+05  1/sec
   Einstein B coef.:     0.4434E+08  sec/g

                 x            y            z

<L> electron    -0.006846    -0.031432     0.118451  e*bohr


   <L> value length:     0.122742    e*bohr
 --------------------------------------------------- 
 Not computing transition moment with identical bra and ket.
 Calculating transition moment for (2,2) => (2,3)
 starting transci.x -m 200000 at Mon May 23 15:35:58 EDT 2022

 -------------------- transci.x ------------------------

                          State No. 1            State No. 2

   Space symmetry:           a                      a   
   No. of CSFs:          ********               ********
   State energies:      -285.92624832          -285.92020851  a.u.

   Transition energy:     0.00603981  a.u.
   Transition energy:     0.16        eV

       Transition moment components:

                 x            y            z

electron         -0.185155    -0.011496    -0.097289  e*bohr
frozen core       0.000000     0.000000     0.000000  e*bohr
total (elec)     -0.185155    -0.011496    -0.097289  e*bohr


   Tr.dipole length:     0.209474    e*bohr
   Oscillator strength :  0.000177
   Einstein A coef.:     0.2071E+03  1/sec
   Einstein B coef.:     0.1781E+08  sec/g

                 x            y            z

<L> electron    -0.068260    -0.285125    -0.005020  e*bohr


   <L> value length:     0.293225    e*bohr
 --------------------------------------------------- 
  Calculating transition moment for (2,2) => (2,4)
 starting transci.x -m 200000 at Mon May 23 15:39:53 EDT 2022

 -------------------- transci.x ------------------------

                          State No. 1            State No. 2

   Space symmetry:           a                      a   
   No. of CSFs:          ********               ********
   State energies:      -285.92624832          -285.91709023  a.u.

   Transition energy:     0.00915809  a.u.
   Transition energy:     0.25        eV

       Transition moment components:

                 x            y            z

electron          0.196230     0.006188     0.045212  e*bohr
frozen core       0.000000     0.000000     0.000000  e*bohr
total (elec)      0.196230     0.006188     0.045212  e*bohr


   Tr.dipole length:     0.201466    e*bohr
   Oscillator strength :  0.000248
   Einstein A coef.:     0.6677E+03  1/sec
   Einstein B coef.:     0.1647E+08  sec/g

                 x            y            z

<L> electron     0.083964    -0.398069    -0.004696  e*bohr


   <L> value length:     0.406855    e*bohr
 --------------------------------------------------- 
 Not computing transition moment with identical bra and ket.
 Calculating transition moment for (2,3) => (2,4)
 starting transci.x -m 200000 at Mon May 23 15:43:49 EDT 2022

 -------------------- transci.x ------------------------

                          State No. 1            State No. 2

   Space symmetry:           a                      a   
   No. of CSFs:          ********               ********
   State energies:      -285.92020851          -285.91709023  a.u.

   Transition energy:     0.00311828  a.u.
   Transition energy:     0.08        eV

       Transition moment components:

                 x            y            z

electron          1.931846     0.038406     0.012058  e*bohr
frozen core       0.000000     0.000000     0.000000  e*bohr
total (elec)      1.931846     0.038406     0.012058  e*bohr


   Tr.dipole length:     1.932265    e*bohr
   Oscillator strength :  0.007762
   Einstein A coef.:     0.2425E+04  1/sec
   Einstein B coef.:     0.1515E+10  sec/g

                 x            y            z

<L> electron     0.002232     0.044806    -0.078470  e*bohr


   <L> value length:     0.090389    e*bohr
 --------------------------------------------------- 
 Not computing transition moment with identical bra and ket.
 --- ci properties for state 1 of  DRT 1 ----
starting exptvl.x -m 200000  at Mon May 23 15:47:45 EDT 2022

 -------------------- exptvl.x ------------------------
  === dipole moment === 
                     X               Y               Z   
   orign x       0.00000000      0.00000000      0.00000000
   orign y       0.00000000      0.00000000      0.00000000
   orign z       0.00000000      0.00000000      0.00000000
   nuclear      -0.94001575     -0.48452775     -0.12756837
   electronic    0.70494593     -0.01829440      0.13340945
   total        -0.23506982     -0.50282215      0.00584108
   total Dipole moment =   1.41089292    Debye
 !timer: exptvl required                 cpu_time=     0.181 walltime=     0.505
 --------------------------------------------------- 
  --- ci properties for state 2 of  DRT 1 ----
starting exptvl.x -m 200000  at Mon May 23 15:47:45 EDT 2022

 -------------------- exptvl.x ------------------------
  === dipole moment === 
                     X               Y               Z   
   orign x       0.00000000      0.00000000      0.00000000
   orign y       0.00000000      0.00000000      0.00000000
   orign z       0.00000000      0.00000000      0.00000000
   nuclear      -0.94001575     -0.48452775     -0.12756837
   electronic    4.27981524      0.03864889      0.19374553
   total         3.33979949     -0.44587886      0.06617716
   total Dipole moment =   8.56590080    Debye
 --------------------------------------------------- 
  --- ci properties for state 3 of  DRT 1 ----
starting exptvl.x -m 200000  at Mon May 23 15:47:46 EDT 2022

 -------------------- exptvl.x ------------------------
  === dipole moment === 
                     X               Y               Z   
   orign x       0.00000000      0.00000000      0.00000000
   orign y       0.00000000      0.00000000      0.00000000
   orign z       0.00000000      0.00000000      0.00000000
   nuclear      -0.94001575     -0.48452775     -0.12756837
   electronic    0.65889082      0.00468457      0.09971252
   total        -0.28112493     -0.47984318     -0.02785585
   total Dipole moment =   1.41531527    Debye
 --------------------------------------------------- 
  --- ci properties for state 4 of  DRT 1 ----
starting exptvl.x -m 200000  at Mon May 23 15:47:46 EDT 2022

 -------------------- exptvl.x ------------------------
  === dipole moment === 
                     X               Y               Z   
   orign x       0.00000000      0.00000000      0.00000000
   orign y       0.00000000      0.00000000      0.00000000
   orign z       0.00000000      0.00000000      0.00000000
   nuclear      -0.94001575     -0.48452775     -0.12756837
   electronic    5.67397510     -0.10575365      0.14829040
   total         4.73395935     -0.59028140      0.02072203
   total Dipole moment =  12.12582982    Debye
 --------------------------------------------------- 
  --- ci properties for state 1 of  DRT 2 ----
starting exptvl.x -m 200000  at Mon May 23 15:47:47 EDT 2022

 -------------------- exptvl.x ------------------------
  === dipole moment === 
                     X               Y               Z   
   orign x       0.00000000      0.00000000      0.00000000
   orign y       0.00000000      0.00000000      0.00000000
   orign z       0.00000000      0.00000000      0.00000000
   nuclear      -0.94001575     -0.48452775     -0.12756837
   electronic    0.66132763      0.02109426      0.13733340
   total        -0.27868812     -0.46343349      0.00976503
   total Dipole moment =   1.37473855    Debye
 --------------------------------------------------- 
  --- ci properties for state 2 of  DRT 2 ----
starting exptvl.x -m 200000  at Mon May 23 15:47:47 EDT 2022

 -------------------- exptvl.x ------------------------
  === dipole moment === 
                     X               Y               Z   
   orign x       0.00000000      0.00000000      0.00000000
   orign y       0.00000000      0.00000000      0.00000000
   orign z       0.00000000      0.00000000      0.00000000
   nuclear      -0.94001575     -0.48452775     -0.12756837
   electronic    0.24138037      0.00477070      0.15154568
   total        -0.69863538     -0.47975705      0.02397731
   total Dipole moment =   2.15499718    Debye
 --------------------------------------------------- 
  --- ci properties for state 3 of  DRT 2 ----
starting exptvl.x -m 200000  at Mon May 23 15:47:47 EDT 2022

 -------------------- exptvl.x ------------------------
  === dipole moment === 
                     X               Y               Z   
   orign x       0.00000000      0.00000000      0.00000000
   orign y       0.00000000      0.00000000      0.00000000
   orign z       0.00000000      0.00000000      0.00000000
   nuclear      -0.94001575     -0.48452775     -0.12756837
   electronic    2.21691322      0.10072115      0.15564369
   total         1.27689747     -0.38380660      0.02807532
   total Dipole moment =   3.38974691    Debye
 --------------------------------------------------- 
  --- ci properties for state 4 of  DRT 2 ----
starting exptvl.x -m 200000  at Mon May 23 15:47:48 EDT 2022

 -------------------- exptvl.x ------------------------
  === dipole moment === 
                     X               Y               Z   
   orign x       0.00000000      0.00000000      0.00000000
   orign y       0.00000000      0.00000000      0.00000000
   orign z       0.00000000      0.00000000      0.00000000
   nuclear      -0.94001575     -0.48452775     -0.12756837
   electronic    2.65896778     -0.05511467      0.13471604
   total         1.71895203     -0.53964242      0.00714767
   total Dipole moment =   4.57942559    Debye
 --------------------------------------------------- 
 starting mo_convert.x at Mon May 23 15:47:48 EDT 2022

 -------------------- mo_convert.x ------------------------
 --------------------------------------------------- 
 starting pymolcas molcas.input.molden > molcas.output.molden at Mon May 23 15:47:49 EDT 2022

Generating link ln -s ./molcas.OrdInt ORDINT 
 -------------------- molden ------------------------
 --------------------------------------------------- 
 starting mo_convert.x at Mon May 23 15:48:17 EDT 2022

 -------------------- mo_convert.x ------------------------
 --------------------------------------------------- 
 starting pymolcas molcas.input.molden > molcas.output.molden at Mon May 23 15:48:18 EDT 2022

Generating link ln -s ./molcas.OrdInt ORDINT 
 -------------------- molden ------------------------
 --------------------------------------------------- 
 starting mo_convert.x at Mon May 23 15:48:42 EDT 2022

 -------------------- mo_convert.x ------------------------
 --------------------------------------------------- 
 starting pymolcas molcas.input.molden > molcas.output.molden at Mon May 23 15:48:43 EDT 2022

Generating link ln -s ./molcas.OrdInt ORDINT 
 -------------------- molden ------------------------
 --------------------------------------------------- 
 starting mo_convert.x at Mon May 23 15:49:06 EDT 2022

 -------------------- mo_convert.x ------------------------
 --------------------------------------------------- 
 starting pymolcas molcas.input.molden > molcas.output.molden at Mon May 23 15:49:06 EDT 2022

Generating link ln -s ./molcas.OrdInt ORDINT 
 -------------------- molden ------------------------
 --------------------------------------------------- 
 starting mo_convert.x at Mon May 23 15:49:27 EDT 2022

 -------------------- mo_convert.x ------------------------
 --------------------------------------------------- 
 starting pymolcas molcas.input.molden > molcas.output.molden at Mon May 23 15:49:27 EDT 2022

Generating link ln -s ./molcas.OrdInt ORDINT 
 -------------------- molden ------------------------
 --------------------------------------------------- 
 starting mo_convert.x at Mon May 23 15:49:51 EDT 2022

 -------------------- mo_convert.x ------------------------
 --------------------------------------------------- 
 starting pymolcas molcas.input.molden > molcas.output.molden at Mon May 23 15:49:52 EDT 2022

Generating link ln -s ./molcas.OrdInt ORDINT 
 -------------------- molden ------------------------
 --------------------------------------------------- 
 starting mo_convert.x at Mon May 23 15:50:17 EDT 2022

 -------------------- mo_convert.x ------------------------
 --------------------------------------------------- 
 starting pymolcas molcas.input.molden > molcas.output.molden at Mon May 23 15:50:17 EDT 2022

Generating link ln -s ./molcas.OrdInt ORDINT 
 -------------------- molden ------------------------
 --------------------------------------------------- 
 starting mo_convert.x at Mon May 23 15:50:38 EDT 2022

 -------------------- mo_convert.x ------------------------
 --------------------------------------------------- 
 starting pymolcas molcas.input.molden > molcas.output.molden at Mon May 23 15:50:38 EDT 2022

Generating link ln -s ./molcas.OrdInt ORDINT 
 -------------------- molden ------------------------
 --------------------------------------------------- 
 starting mo_convert.x at Mon May 23 15:50:59 EDT 2022

 -------------------- mo_convert.x ------------------------
 --------------------------------------------------- 
 starting pymolcas molcas.input.molden > molcas.output.molden at Mon May 23 15:50:59 EDT 2022

Generating link ln -s ./molcas.OrdInt ORDINT 
 -------------------- molden ------------------------
 --------------------------------------------------- 
 starting mo_convert.x at Mon May 23 15:51:22 EDT 2022

 -------------------- mo_convert.x ------------------------
 --------------------------------------------------- 
 starting pymolcas molcas.input.molden > molcas.output.molden at Mon May 23 15:51:22 EDT 2022

Generating link ln -s ./molcas.OrdInt ORDINT 
 -------------------- molden ------------------------
 --------------------------------------------------- 
 starting mo_convert.x at Mon May 23 15:51:43 EDT 2022

 -------------------- mo_convert.x ------------------------
 --------------------------------------------------- 
 starting pymolcas molcas.input.molden > molcas.output.molden at Mon May 23 15:51:44 EDT 2022

Generating link ln -s ./molcas.OrdInt ORDINT 
 -------------------- molden ------------------------
 --------------------------------------------------- 
 starting mo_convert.x at Mon May 23 15:52:04 EDT 2022

 -------------------- mo_convert.x ------------------------
 --------------------------------------------------- 
 starting pymolcas molcas.input.molden > molcas.output.molden at Mon May 23 15:52:04 EDT 2022

Generating link ln -s ./molcas.OrdInt ORDINT 
 -------------------- molden ------------------------
 --------------------------------------------------- 
 starting mo_convert.x at Mon May 23 15:52:25 EDT 2022

 -------------------- mo_convert.x ------------------------
 --------------------------------------------------- 
 starting pymolcas molcas.input.molden > molcas.output.molden at Mon May 23 15:52:26 EDT 2022

Generating link ln -s ./molcas.OrdInt ORDINT 
 -------------------- molden ------------------------
 --------------------------------------------------- 
 starting mo_convert.x at Mon May 23 15:52:46 EDT 2022

 -------------------- mo_convert.x ------------------------
 --------------------------------------------------- 
 starting pymolcas molcas.input.molden > molcas.output.molden at Mon May 23 15:52:46 EDT 2022

Generating link ln -s ./molcas.OrdInt ORDINT 
 -------------------- molden ------------------------
 --------------------------------------------------- 
 

 +++++++++++ STARTING GRADIENTS AND NAD. COUPLINGS CALCULATION +++++++++++ 

 Using new transition density code ... 
INFO: this is a frozen core gradient calculation
starting cidrt.x  -m 200000 < cidrtin.cigrd > cidrtls.cigrd at Mon May 23 15:53:11 EDT 2022

 -------------------- cidrt.x ------------------------
 total number of orbitals            :   246
 number of frozen core orbitals      :    18
 number of frozen virtual orbitals   :     0
 number of internal orbitals         :    14
 number of external orbitals         :   214
 spatial symmetry:   a  
 
 total number of configurations  282461366
 number of reference configurations  1666
 --------------------------------------------------- 
 starting tran.x -m 200000  at Mon May 23 15:53:18 EDT 2022

 -------------------- tran.x ------------------------
 --------------------------------------------------- 
 ---- Computing 8 gradient(s)  ----

 --- Computing gradient for DRT:1, State; 1

starting cigrd.x -m 200000 at Mon May 23 16:01:18 EDT 2022

 -------------------- cigrd.x ------------------------
 Total energy (ciudg) :  -286.103659755352 
  Effective energy     :  -286.103659772483 
  Delta E              :     0.000000017131 
  --------------------------------------------------- 
 starting tran.x -m 200000  at Mon May 23 16:10:58 EDT 2022

 -------------------- tran.x ------------------------
 --------------------------------------------------- 
 starting pymolcas molcas.input.alaska > molcas.output.alaska  at Mon May 23 16:17:57 EDT 2022

Generating link ln -s ./molcas.OrdInt ORDINT 
 -------------------- alaska ------------------------
 --------------------------------------------------- 
 cartesian gradient by alaska (MOLCAS)

 === Gradient of DRT 1, state 1 === 
   0.175453D-01   0.237410D-01   0.384685D-01
  -0.168342D-05   0.104706D-04  -0.766181D-05
   0.648125D-05  -0.213886D-05  -0.186597D-05
  -0.131609D-06   0.110899D-05   0.294065D-05
   0.173367D-05  -0.104706D-05   0.143856D-05
   0.283296D-06  -0.688107D-07  -0.164295D-05
  -0.371011D-05  -0.456592D-06  -0.574242D-06
  -0.175470D-01  -0.237596D-01  -0.384622D-01
  -0.272185D-05   0.937392D-05   0.221892D-06
   0.985876D-06   0.780829D-06   0.171851D-05
   0.565934D-06   0.294060D-06  -0.860062D-06
  -0.569827D-06  -0.144865D-06   0.156021D-05
  -0.754696D-06  -0.210748D-06  -0.160986D-05
   0.121300D-05   0.591884D-06  -0.309873D-07
===================================
 --- Computing gradient for DRT:1, State; 2

starting cigrd.x -m 200000 at Mon May 23 16:19:17 EDT 2022

 -------------------- cigrd.x ------------------------
 Total energy (ciudg) :  -285.915995385224 
  Effective energy     :  -285.915995403012 
  Delta E              :     0.000000017788 
  --------------------------------------------------- 
 starting tran.x -m 200000  at Mon May 23 16:29:59 EDT 2022

 -------------------- tran.x ------------------------
 --------------------------------------------------- 
 starting pymolcas molcas.input.alaska > molcas.output.alaska  at Mon May 23 16:36:54 EDT 2022

Generating link ln -s ./molcas.OrdInt ORDINT 
 -------------------- alaska ------------------------
 --------------------------------------------------- 
 cartesian gradient by alaska (MOLCAS)

 === Gradient of DRT 1, state 2 === 
  -0.542392D-01   0.563295D-01   0.349013D-01
   0.623335D-01  -0.148753D-01  -0.149614D-02
  -0.231516D-01   0.141537D-02   0.302817D-01
  -0.240509D-01  -0.447275D-02  -0.289992D-01
   0.184047D-01  -0.436682D-03   0.147772D-01
   0.177054D-01   0.282771D-02  -0.149749D-01
  -0.352259D-02  -0.781160D-04  -0.365349D-03
  -0.569405D-02  -0.289831D-01  -0.190865D-01
   0.110071D-01  -0.102064D-01  -0.149857D-01
  -0.904026D-03  -0.181122D-02  -0.308648D-02
  -0.939480D-03   0.464015D-03   0.296467D-02
   0.131722D-02   0.320769D-03  -0.104095D-02
   0.129363D-02  -0.109901D-03   0.112661D-02
   0.440297D-03  -0.383890D-03  -0.162920D-04
===================================
 --- Computing gradient for DRT:1, State; 3

starting cigrd.x -m 200000 at Mon May 23 16:38:13 EDT 2022

 -------------------- cigrd.x ------------------------
 Total energy (ciudg) :  -285.913977316770 
  Effective energy     :  -285.913977335369 
  Delta E              :     0.000000018599 
  --------------------------------------------------- 
 starting tran.x -m 200000  at Mon May 23 16:48:56 EDT 2022

 -------------------- tran.x ------------------------
 --------------------------------------------------- 
 starting pymolcas molcas.input.alaska > molcas.output.alaska  at Mon May 23 16:55:53 EDT 2022

Generating link ln -s ./molcas.OrdInt ORDINT 
 -------------------- alaska ------------------------
 --------------------------------------------------- 
 cartesian gradient by alaska (MOLCAS)

 === Gradient of DRT 1, state 3 === 
  -0.352123D-02   0.333894D-01   0.406170D-01
   0.341692D-01  -0.154088D-02   0.564721D-03
   0.232757D-01  -0.382808D-02   0.306197D-01
   0.228529D-01   0.231455D-02  -0.316030D-01
  -0.222908D-01   0.193166D-02   0.276334D-01
  -0.211484D-01  -0.168896D-02  -0.280904D-01
  -0.182369D-01   0.290422D-03   0.677450D-03
  -0.168736D-01  -0.274886D-01  -0.365287D-01
   0.103585D-02  -0.237900D-02  -0.404034D-02
  -0.322809D-03   0.615057D-03  -0.107528D-02
  -0.319595D-03  -0.141185D-02   0.122966D-02
   0.441319D-03  -0.218298D-03  -0.121372D-02
   0.458939D-03   0.235754D-03   0.119008D-02
   0.479399D-03  -0.221121D-03   0.194805D-04
===================================
 --- Computing gradient for DRT:1, State; 4

starting cigrd.x -m 200000 at Mon May 23 16:57:09 EDT 2022

 -------------------- cigrd.x ------------------------
 Total energy (ciudg) :  -285.864939985994 
  Effective energy     :  -285.864940001242 
  Delta E              :     0.000000015248 
  --------------------------------------------------- 
 starting tran.x -m 200000  at Mon May 23 17:07:21 EDT 2022

 -------------------- tran.x ------------------------
 --------------------------------------------------- 
 starting pymolcas molcas.input.alaska > molcas.output.alaska  at Mon May 23 17:14:29 EDT 2022

Generating link ln -s ./molcas.OrdInt ORDINT 
 -------------------- alaska ------------------------
 --------------------------------------------------- 
 cartesian gradient by alaska (MOLCAS)

 === Gradient of DRT 1, state 4 === 
  -0.186856D-01   0.323333D-01   0.382626D-01
   0.445398D-01  -0.335016D-02  -0.739777D-03
   0.389850D-01  -0.159985D-03  -0.254756D-02
   0.380537D-01  -0.415205D-03   0.262828D-02
  -0.444398D-01  -0.687564D-03  -0.112018D-01
  -0.444933D-01  -0.499177D-03   0.110535D-01
  -0.784377D-02   0.115799D-03  -0.112488D-03
  -0.124763D-01  -0.249747D-01  -0.326453D-01
   0.488642D-02  -0.235087D-02  -0.485441D-02
  -0.685522D-03  -0.635079D-04  -0.315551D-02
  -0.722516D-03   0.113276D-03   0.322911D-02
   0.545049D-03   0.162194D-05  -0.114746D-02
   0.528121D-03  -0.649610D-04   0.122240D-02
   0.180871D-02   0.210070D-05   0.836047D-05
===================================
 --- Computing gradient for DRT:2, State; 1

starting cigrd.x -m 200000 at Mon May 23 17:15:48 EDT 2022

 -------------------- cigrd.x ------------------------
 Total energy (ciudg) :  -285.947334316537 
  Effective energy     :  -285.947334333423 
  Delta E              :     0.000000016886 
  --------------------------------------------------- 
 starting tran.x -m 200000  at Mon May 23 17:26:17 EDT 2022

 -------------------- tran.x ------------------------
 --------------------------------------------------- 
 starting pymolcas molcas.input.alaska > molcas.output.alaska  at Mon May 23 17:33:22 EDT 2022

Generating link ln -s ./molcas.OrdInt ORDINT 
 -------------------- alaska ------------------------
 --------------------------------------------------- 
 cartesian gradient by alaska (MOLCAS)

 === Gradient of DRT 2, state 1 === 
   0.865403D-02   0.243201D-01   0.385213D-01
   0.436760D-01   0.147013D-02  -0.269207D-02
  -0.108602D-01  -0.159084D-02   0.366720D-01
  -0.105873D-01  -0.108436D-02  -0.344631D-01
   0.910038D-02   0.571146D-03   0.356320D-01
   0.111228D-01   0.539433D-03  -0.381060D-01
  -0.369011D-01  -0.237641D-03   0.238653D-02
  -0.159910D-01  -0.230675D-01  -0.363523D-01
   0.113283D-02  -0.377373D-03  -0.162445D-02
  -0.861647D-03  -0.282060D-03  -0.233810D-03
  -0.855836D-03  -0.157633D-03   0.206467D-03
   0.695932D-03   0.144270D-03  -0.574907D-03
   0.726222D-03   0.958047D-04   0.585079D-03
   0.948868D-03  -0.343474D-03   0.433660D-04
===================================
 --- Computing gradient for DRT:2, State; 2

starting cigrd.x -m 200000 at Mon May 23 17:34:41 EDT 2022

 -------------------- cigrd.x ------------------------
 Total energy (ciudg) :  -285.926248317726 
  Effective energy     :  -285.926248336135 
  Delta E              :     0.000000018409 
  --------------------------------------------------- 
 starting tran.x -m 200000  at Mon May 23 17:44:40 EDT 2022

 -------------------- tran.x ------------------------
 --------------------------------------------------- 
 starting pymolcas molcas.input.alaska > molcas.output.alaska  at Mon May 23 17:51:46 EDT 2022

Generating link ln -s ./molcas.OrdInt ORDINT 
 -------------------- alaska ------------------------
 --------------------------------------------------- 
 cartesian gradient by alaska (MOLCAS)

 === Gradient of DRT 2, state 2 === 
  -0.130446D-01   0.385221D-01   0.376440D-01
   0.334814D-01  -0.481210D-02   0.569754D-02
   0.306309D-01   0.107268D-02   0.274593D-01
   0.275826D-01  -0.670717D-03  -0.321667D-01
  -0.304221D-01  -0.266733D-03   0.272779D-01
  -0.324746D-01   0.389444D-03  -0.235351D-01
   0.903312D-03   0.498955D-03  -0.392877D-02
  -0.177297D-01  -0.281557D-01  -0.348558D-01
   0.361221D-03  -0.516471D-02  -0.344668D-02
   0.165408D-03  -0.832467D-03  -0.159150D-02
   0.105331D-03  -0.306639D-04   0.153404D-02
   0.378084D-03  -0.825787D-04  -0.162366D-02
   0.368976D-03  -0.239651D-03   0.160470D-02
  -0.306218D-03  -0.227833D-03  -0.693418D-04
===================================
 --- Computing gradient for DRT:2, State; 3

starting cigrd.x -m 200000 at Mon May 23 17:53:02 EDT 2022

 -------------------- cigrd.x ------------------------
 Total energy (ciudg) :  -285.920208506043 
  Effective energy     :  -285.920208523427 
  Delta E              :     0.000000017384 
  --------------------------------------------------- 
 starting tran.x -m 200000  at Mon May 23 18:03:18 EDT 2022

 -------------------- tran.x ------------------------
 --------------------------------------------------- 
 starting pymolcas molcas.input.alaska > molcas.output.alaska  at Mon May 23 18:10:20 EDT 2022

Generating link ln -s ./molcas.OrdInt ORDINT 
 -------------------- alaska ------------------------
 --------------------------------------------------- 
 cartesian gradient by alaska (MOLCAS)

 === Gradient of DRT 2, state 3 === 
  -0.254163D-01   0.395716D-01   0.372937D-01
   0.399063D-01  -0.187191D-01  -0.390647D-02
   0.208521D-01   0.175180D-02   0.198669D-01
   0.222430D-01   0.347473D-02  -0.175367D-01
  -0.250873D-01   0.401818D-02   0.102701D-01
  -0.238031D-01   0.341130D-02  -0.116771D-01
  -0.785651D-02  -0.340132D-02   0.182691D-02
  -0.915416D-02  -0.237462D-01  -0.246697D-01
   0.692060D-02  -0.288870D-02  -0.115165D-01
  -0.267105D-03  -0.115446D-02  -0.201572D-02
  -0.303552D-03  -0.143690D-02   0.205694D-02
   0.704445D-03  -0.844608D-04  -0.106954D-02
   0.646596D-03  -0.956958D-04   0.107536D-02
   0.615001D-03  -0.700718D-03   0.178851D-05
===================================
 --- Computing gradient for DRT:2, State; 4

starting cigrd.x -m 200000 at Mon May 23 18:11:38 EDT 2022

 -------------------- cigrd.x ------------------------
 Total energy (ciudg) :  -285.917090230583 
  Effective energy     :  -285.917090248368 
[...]
   6.721844E-02  -7.327531E-02  -5.135740E+00
  -7.804052E-01  -5.183435E-02   2.367464E+00
   6.743205E-01   9.960482E-02   2.320570E+00
  -1.410339E+00   2.458493E-02  -2.256787E+00
   1.514216E+00   2.983641E-03  -2.259023E+00
   1.132737E-02  -1.348132E-02   4.423595E+00
   4.366630E-02   1.610403E-01   1.079490E-01
  -1.413709E-02  -1.211454E-01   1.634803E-02
  -2.742760E-02  -2.227257E-02  -1.377677E-02
   2.855320E-02   9.101693E-03  -1.048645E-02
  -2.716717E-02  -7.829815E-03   1.237802E-02
   2.858120E-02   3.791150E-03   1.196801E-02
  -7.377927E-04  -2.158280E-03   8.034433E-02
===================================

 Norm of the nonadiabatic coupling vector: 
 |h(drt2.state1,drt2.state2)|= 8.52577847256818 

 Cross-check of the non-adiabatic coupling term:
  DeltaE= -0.0210859988999914

  <L>*dE form CIGRD   :   -0.0000470639    -0.0009447793     0.0016546183
  <L>*dE form NADCOUPL:   -0.0003539850     0.0188613209     0.0002735181
 -------------------------------------------------------------------------
  Difference          :    0.0003069210    -0.0198061002     0.0013811002

 NOTE: This test is meaningless at a point of conical intersection!


 -------- NAD. COUPLING for DRT:2 STATE:1 AND DRT:2 STATE:3 --------
opening file =ciudgls.drt2.sp
opening file =ciudgls.drt2.sp
extracted: energy1= -285.9473343163   energy2=-285.9202085057   deltae=-0.0271258106000118
starting cigrd.x -m 200000 at Mon May 23 20:44:07 EDT 2022

 -------------------- cigrd.x ------------------------
 Total energy (ciudg) :     0.000000000333 
  Effective energy     :     0.000000005457 
  Delta E              :    -0.000000005124 
  --------------------------------------------------- 
 starting tran.x -m 200000  at Mon May 23 20:54:36 EDT 2022

 -------------------- tran.x ------------------------
 --------------------------------------------------- 
  adding keyword NONUC to alaska input
starting pymolcas molcas.input.alaska > molcas.output.alaska  at Mon May 23 21:01:20 EDT 2022

Generating link ln -s ./molcas.OrdInt ORDINT 
 -------------------- alaska ------------------------
 --------------------------------------------------- 
 cartesian gradient by alaska (MOLCAS)

 Calculating the Dx(r,s) term of D[CSF] nonadiabatic coupling term.
dxcalc: INPUT LINE SEPARATOR 
 
starting tran.x -m 200000  at Mon May 23 21:02:29 EDT 2022

 -------------------- tran.x ------------------------
 --------------------------------------------------- 
 starting tdmrunfile.x > tdmrunfilels at Mon May 23 21:02:30 EDT 2022

 -------------------- tdmrunfile.x ------------------------
 --------------------------------------------------- 
 starting pymolcas molcas.input.alaska > molcas.output.alaska  at Mon May 23 21:02:30 EDT 2022

Generating link ln -s ./molcas.OrdInt ORDINT 
 -------------------- alaska ------------------------
 --------------------------------------------------- 
 
 === Non-adiabatic coupling for DRT 2 STATE 1 and DRT 2 STATE 3 === 
  -5.743456E-01   9.237490E-02  -4.259830E-02
   1.019097E+00  -5.331782E-01   2.455758E-01
  -2.195297E+00   9.389025E-02   6.410400E-01
  -2.291151E+00   1.099776E-01  -8.836973E-01
   2.306858E+00   1.353306E-01   7.705835E-01
   2.157863E+00   1.458162E-01  -5.448981E-01
  -7.260054E-01  -1.342115E-01  -2.259431E-01
   1.662811E-01   1.238616E-01   2.797824E-01
   1.275036E-01   5.798715E-02  -2.338574E-01
  -2.085743E-02  -2.319957E-02   1.942860E-02
  -2.431004E-02  -2.481014E-02  -2.002551E-02
   2.578980E-02  -2.011469E-04   2.246526E-02
   2.300675E-02  -3.606346E-03  -2.292290E-02
   1.027311E-02  -2.251656E-02  -3.882255E-03
===================================

 Norm of the nonadiabatic coupling vector: 
 |h(drt2.state1,drt2.state3)|= 4.97097929508269 

 Cross-check of the non-adiabatic coupling term:
  DeltaE= -0.0271258106000118

  <L>*dE form CIGRD   :   -0.0000605448    -0.0012153991     0.0021285624
  <L>*dE form NADCOUPL:   -0.0001495060    -0.0014383904     0.0027814051
 -------------------------------------------------------------------------
  Difference          :    0.0000889612     0.0002229913    -0.0006528428

 NOTE: This test is meaningless at a point of conical intersection!


 -------- NAD. COUPLING for DRT:2 STATE:1 AND DRT:2 STATE:4 --------
opening file =ciudgls.drt2.sp
opening file =ciudgls.drt2.sp
extracted: energy1= -285.9473343163   energy2=-285.9170902303   deltae=-0.030244085999982
starting cigrd.x -m 200000 at Mon May 23 21:03:38 EDT 2022

 -------------------- cigrd.x ------------------------
 Total energy (ciudg) :     0.000000000210 
  Effective energy     :    -0.000000001264 
  Delta E              :     0.000000001474 
  --------------------------------------------------- 
 starting tran.x -m 200000  at Mon May 23 21:13:27 EDT 2022

 -------------------- tran.x ------------------------
 --------------------------------------------------- 
  adding keyword NONUC to alaska input
starting pymolcas molcas.input.alaska > molcas.output.alaska  at Mon May 23 21:20:12 EDT 2022

Generating link ln -s ./molcas.OrdInt ORDINT 
 -------------------- alaska ------------------------
 --------------------------------------------------- 
 cartesian gradient by alaska (MOLCAS)

 Calculating the Dx(r,s) term of D[CSF] nonadiabatic coupling term.
dxcalc: INPUT LINE SEPARATOR 
 
starting tran.x -m 200000  at Mon May 23 21:21:21 EDT 2022

 -------------------- tran.x ------------------------
 --------------------------------------------------- 
 starting tdmrunfile.x > tdmrunfilels at Mon May 23 21:21:22 EDT 2022

 -------------------- tdmrunfile.x ------------------------
 --------------------------------------------------- 
 starting pymolcas molcas.input.alaska > molcas.output.alaska  at Mon May 23 21:21:22 EDT 2022

Generating link ln -s ./molcas.OrdInt ORDINT 
 -------------------- alaska ------------------------
 --------------------------------------------------- 
 
 === Non-adiabatic coupling for DRT 2 STATE 1 and DRT 2 STATE 4 === 
   2.810765E-01  -3.557526E-02   2.608558E-02
   5.434991E-01   6.555937E-01  -1.236715E-01
  -1.781958E+00  -2.060123E-01   6.700185E-01
  -1.724565E+00  -2.149250E-01  -5.450241E-01
   1.762958E+00  -1.157492E-01   6.144794E-01
   1.828028E+00  -1.195187E-01  -7.370137E-01
  -7.688380E-01   1.393739E-01   1.198187E-01
  -9.168881E-02  -1.233743E-01  -1.791820E-01
  -6.835406E-02  -8.470850E-02   1.500539E-01
  -2.229990E-02   2.384213E-02   2.952812E-02
  -2.032241E-02   2.362068E-02  -2.912429E-02
   1.879465E-02   1.052732E-02   1.787316E-02
   2.089943E-02   1.370823E-02  -1.724909E-02
   1.268479E-02   1.232364E-02   2.202657E-03
===================================

 Norm of the nonadiabatic coupling vector: 
 |h(drt2.state1,drt2.state4)|= 3.99054927935563 

 Cross-check of the non-adiabatic coupling term:
  DeltaE= -0.030244085999982

  <L>*dE form CIGRD   :   -0.0000675048    -0.0013551165     0.0023732534
  <L>*dE form NADCOUPL:    0.0002069103     0.0009506506    -0.0035825054
 -------------------------------------------------------------------------
  Difference          :   -0.0002744151    -0.0023057671     0.0059557588

 NOTE: This test is meaningless at a point of conical intersection!


 -------- NAD. COUPLING for DRT:2 STATE:2 AND DRT:2 STATE:3 --------
opening file =ciudgls.drt2.sp
opening file =ciudgls.drt2.sp
extracted: energy1= -285.9262483174   energy2=-285.9202085057   deltae=-0.00603981170002044
starting cigrd.x -m 200000 at Mon May 23 21:22:28 EDT 2022

 -------------------- cigrd.x ------------------------
 Total energy (ciudg) :    -0.000000000401 
  Effective energy     :    -0.000000007042 
  Delta E              :     0.000000006641 
  --------------------------------------------------- 
 starting tran.x -m 200000  at Mon May 23 21:32:30 EDT 2022

 -------------------- tran.x ------------------------
 --------------------------------------------------- 
  adding keyword NONUC to alaska input
starting pymolcas molcas.input.alaska > molcas.output.alaska  at Mon May 23 21:39:08 EDT 2022

Generating link ln -s ./molcas.OrdInt ORDINT 
 -------------------- alaska ------------------------
 --------------------------------------------------- 
 cartesian gradient by alaska (MOLCAS)

 Calculating the Dx(r,s) term of D[CSF] nonadiabatic coupling term.
dxcalc: INPUT LINE SEPARATOR 
 
starting tran.x -m 200000  at Mon May 23 21:40:16 EDT 2022

 -------------------- tran.x ------------------------
 --------------------------------------------------- 
 starting tdmrunfile.x > tdmrunfilels at Mon May 23 21:40:16 EDT 2022

 -------------------- tdmrunfile.x ------------------------
 --------------------------------------------------- 
 starting pymolcas molcas.input.alaska > molcas.output.alaska  at Mon May 23 21:40:16 EDT 2022

Generating link ln -s ./molcas.OrdInt ORDINT 
 -------------------- alaska ------------------------
 --------------------------------------------------- 
 
 === Non-adiabatic coupling for DRT 2 STATE 2 and DRT 2 STATE 3 === 
   4.271723E-01   7.700039E-03   1.010060E+00
  -1.667019E-01   1.697883E-01  -4.154057E+00
  -1.063076E+00  -7.862486E-01   1.356702E+00
   1.380469E+00   6.899240E-01   1.119553E+00
  -1.348389E+00   4.278434E-01  -5.011156E-01
   1.057218E+00  -4.630341E-01  -8.916594E-01
  -3.595673E-02   8.890274E-03   2.617209E+00
  -1.238850E-01  -3.182442E-01  -5.219103E-01
  -1.233598E-01   2.189630E-01  -1.037363E-01
   1.928222E-02   2.406948E-01   7.761793E-02
  -1.042601E-02  -2.247160E-01   4.518456E-02
   3.529517E-02  -5.073479E-02  -3.588996E-02
  -4.256999E-02   7.578526E-02  -2.674018E-02
  -5.552756E-03   4.052884E-03   4.897991E-03
===================================

 Norm of the nonadiabatic coupling vector: 
 |h(drt2.state2,drt2.state3)|= 6.12891636799519 

 Cross-check of the non-adiabatic coupling term:
  DeltaE= -0.00603981170002044

  <L>*dE form CIGRD   :   -0.0000134809    -0.0002706198     0.0004739440
  <L>*dE form NADCOUPL:    0.0004146225     0.0017222412     0.0000304200
 -------------------------------------------------------------------------
  Difference          :   -0.0004281034    -0.0019928610     0.0004435240

 NOTE: This test is meaningless at a point of conical intersection!


 -------- NAD. COUPLING for DRT:2 STATE:2 AND DRT:2 STATE:4 --------
opening file =ciudgls.drt2.sp
opening file =ciudgls.drt2.sp
extracted: energy1= -285.9262483174   energy2=-285.9170902303   deltae=-0.00915808709999055
starting cigrd.x -m 200000 at Mon May 23 21:41:27 EDT 2022

 -------------------- cigrd.x ------------------------
 Total energy (ciudg) :     0.000000001237 
  Effective energy     :     0.000000006948 
  Delta E              :    -0.000000005711 
  --------------------------------------------------- 
 starting tran.x -m 200000  at Mon May 23 21:52:05 EDT 2022

 -------------------- tran.x ------------------------
 --------------------------------------------------- 
  adding keyword NONUC to alaska input
starting pymolcas molcas.input.alaska > molcas.output.alaska  at Mon May 23 21:58:47 EDT 2022

Generating link ln -s ./molcas.OrdInt ORDINT 
 -------------------- alaska ------------------------
 --------------------------------------------------- 
 cartesian gradient by alaska (MOLCAS)

 Calculating the Dx(r,s) term of D[CSF] nonadiabatic coupling term.
dxcalc: INPUT LINE SEPARATOR 
 
starting tran.x -m 200000  at Mon May 23 21:59:54 EDT 2022

 -------------------- tran.x ------------------------
 --------------------------------------------------- 
 starting tdmrunfile.x > tdmrunfilels at Mon May 23 21:59:54 EDT 2022

 -------------------- tdmrunfile.x ------------------------
 --------------------------------------------------- 
 starting pymolcas molcas.input.alaska > molcas.output.alaska  at Mon May 23 21:59:55 EDT 2022

Generating link ln -s ./molcas.OrdInt ORDINT 
 -------------------- alaska ------------------------
 --------------------------------------------------- 
 
 === Non-adiabatic coupling for DRT 2 STATE 2 and DRT 2 STATE 4 === 
  -2.871178E-01   3.898350E-02  -2.776292E-01
   2.085166E-01   3.051707E-02  -1.177042E+00
  -5.732888E-01   5.314958E-01   2.196483E-01
  -2.764120E-01  -5.678139E-01   1.202116E-01
  -2.047175E-01  -3.957703E-01   1.237379E-01
   1.023811E+00   3.505571E-01   1.542801E-01
  -2.757054E-02   2.593375E-02   5.102787E-01
   1.047670E-01   1.932219E-01   3.033199E-01
   3.184857E-02  -2.088390E-01   7.958411E-02
   1.785784E-02  -1.753361E-01  -1.360695E-03
  -3.118296E-02   1.829055E-01   1.836766E-02
   3.638169E-02   4.892244E-02  -2.083294E-02
  -2.407340E-02  -5.584419E-02  -2.877103E-02
   2.705793E-03   2.113577E-03  -2.163948E-02
===================================

 Norm of the nonadiabatic coupling vector: 
 |h(drt2.state2,drt2.state4)|= 2.1448413935562 

 Cross-check of the non-adiabatic coupling term:
  DeltaE= -0.00915808709999055

  <L>*dE form CIGRD   :   -0.0000204409    -0.0004103373     0.0007186351
  <L>*dE form NADCOUPL:   -0.0007696712     0.0036459417     0.0000430112
 -------------------------------------------------------------------------
  Difference          :    0.0007492303    -0.0040562789     0.0006756239

 NOTE: This test is meaningless at a point of conical intersection!


 -------- NAD. COUPLING for DRT:2 STATE:3 AND DRT:2 STATE:4 --------
opening file =ciudgls.drt2.sp
opening file =ciudgls.drt2.sp
extracted: energy1= -285.9202085057   energy2=-285.9170902303   deltae=-0.00311827539997012
starting cigrd.x -m 200000 at Mon May 23 22:00:59 EDT 2022

 -------------------- cigrd.x ------------------------
 Total energy (ciudg) :    -0.000000000062 
  Effective energy     :     0.000000001008 
  Delta E              :    -0.000000001070 
  --------------------------------------------------- 
 starting tran.x -m 200000  at Mon May 23 22:11:29 EDT 2022

 -------------------- tran.x ------------------------
 --------------------------------------------------- 
  adding keyword NONUC to alaska input
starting pymolcas molcas.input.alaska > molcas.output.alaska  at Mon May 23 22:18:19 EDT 2022

Generating link ln -s ./molcas.OrdInt ORDINT 
 -------------------- alaska ------------------------
 --------------------------------------------------- 
 cartesian gradient by alaska (MOLCAS)

 Calculating the Dx(r,s) term of D[CSF] nonadiabatic coupling term.
dxcalc: INPUT LINE SEPARATOR 
 
starting tran.x -m 200000  at Mon May 23 22:19:30 EDT 2022

 -------------------- tran.x ------------------------
 --------------------------------------------------- 
 starting tdmrunfile.x > tdmrunfilels at Mon May 23 22:19:30 EDT 2022

 -------------------- tdmrunfile.x ------------------------
 --------------------------------------------------- 
 starting pymolcas molcas.input.alaska > molcas.output.alaska  at Mon May 23 22:19:30 EDT 2022

Generating link ln -s ./molcas.OrdInt ORDINT 
 -------------------- alaska ------------------------
 --------------------------------------------------- 
 
 === Non-adiabatic coupling for DRT 2 STATE 3 and DRT 2 STATE 4 === 
  -1.065192E+01   4.833220E+00  -3.783535E-01
   5.809879E+00  -2.651984E+00  -2.939020E-01
  -1.100585E+01  -3.851638E-01   2.210820E+00
  -1.092949E+01  -9.215195E-02  -2.060214E+00
   1.001688E+01   3.151461E-01  -3.039804E-01
   9.930792E+00   1.476288E-01   1.074881E-01
   2.666483E+00  -3.822041E-02   1.375276E-01
   2.260034E+00  -7.189331E-01   3.430159E+00
   1.992345E+00  -1.257042E+00  -2.877296E+00
  -1.481974E-01  -1.205158E-02  -3.355363E-01
  -1.458367E-01  -1.370981E-01   3.443828E-01
   1.480381E-01   3.116421E-03   3.046713E-03
   1.465683E-01   4.423697E-02   1.316413E-02
  -8.215043E-02  -3.166509E-02   3.560731E-03
===================================

 Norm of the nonadiabatic coupling vector: 
 |h(drt2.state3,drt2.state4)|= 25.7990701824635 

 Cross-check of the non-adiabatic coupling term:
  DeltaE= -0.00311827539997012

  <L>*dE form CIGRD   :   -0.0000069600    -0.0001397174     0.0002446911
  <L>*dE form NADCOUPL:   -0.0000067040    -0.0001395729     0.0002460695
 -------------------------------------------------------------------------
  Difference          :   -0.0000002560    -0.0000001446    -0.0000013784

 NOTE: This test is meaningless at a point of conical intersection!



============== timings ===================

   unik.gets.x    
   mcdrt.x        
   mcuft.x        
 * mcscf.x          walltime    0:03:02
   mcpc.x         
   mcpc.x         
   mcpc.x         
   mcpc.x         
   exptvl.x       
   exptvl.x       
   exptvl.x       
   exptvl.x       
   cidrt.x        
   cidrt.x        
 * tran.x           walltime    0:07:29
 * pciudg.x -m 19000   walltime   17:20:34
 * cipc.x           walltime    0:00:15
 * pciudg.x -m 19000   walltime   39:59:00
 * cipc.x           walltime    0:00:21
 * reindex.x        walltime    0:04:09
 * pciudg.x -m 19000   walltime    1:54:48
 * transci.x        walltime    0:02:19
 * transci.x        walltime    0:02:14
 * transci.x        walltime    0:02:13
 * transci.x        walltime    0:02:10
 * transci.x        walltime    0:02:12
 * transci.x        walltime    0:02:11
 * transci.x        walltime    0:04:03
 * transci.x        walltime    0:04:00
 * transci.x        walltime    0:03:59
 * transci.x        walltime    0:03:55
 * transci.x        walltime    0:03:56
 * transci.x        walltime    0:03:55
   exptvl.x       
   exptvl.x       
   exptvl.x       
   exptvl.x       
   exptvl.x       
   exptvl.x       
   exptvl.x       
   exptvl.x       
   mo_convert.x   
   mo_convert.x   
   mo_convert.x   
   mo_convert.x   
   mo_convert.x   
   mo_convert.x   
   mo_convert.x   
   mo_convert.x   
   mo_convert.x   
   mo_convert.x   
   mo_convert.x   
   mo_convert.x   
   mo_convert.x   
   mo_convert.x   
 * cidrt.x          walltime    0:00:06
 * tran.x           walltime    0:08:00
 * cigrd.x          walltime    0:09:40
 * tran.x           walltime    0:06:58
 * cigrd.x          walltime    0:10:41
 * tran.x           walltime    0:06:54
 * cigrd.x          walltime    0:10:40
 * tran.x           walltime    0:06:56
 * cigrd.x          walltime    0:10:11
 * tran.x           walltime    0:07:07
 * cigrd.x          walltime    0:10:28
 * tran.x           walltime    0:07:04
 * cigrd.x          walltime    0:09:57
 * tran.x           walltime    0:07:05
 * cigrd.x          walltime    0:10:15
 * tran.x           walltime    0:07:01
 * cigrd.x          walltime    0:09:54
 * tran.x           walltime    0:07:04
 * cigrd.x          walltime    0:10:15
 * tran.x           walltime    0:06:47
   tran.x         
   tdmrunfile.x   
 * cigrd.x          walltime    0:10:21
 * tran.x           walltime    0:06:49
   tran.x         
   tdmrunfile.x   
 * cigrd.x          walltime    0:10:11
 * tran.x           walltime    0:06:24
   tran.x         
   tdmrunfile.x   
 * cigrd.x          walltime    0:09:59
 * tran.x           walltime    0:07:00
   tran.x         
   tdmrunfile.x   
 * cigrd.x          walltime    0:10:29
 * tran.x           walltime    0:06:44
   tran.x         
   tdmrunfile.x   
 * cigrd.x          walltime    0:09:58
 * tran.x           walltime    0:06:37
   tran.x         
   tdmrunfile.x   
 * cigrd.x          walltime    0:09:59
 * tran.x           walltime    0:06:43
   tran.x         
   tdmrunfile.x   
 * cigrd.x          walltime    0:10:28
 * tran.x           walltime    0:06:43
   tran.x         
   tdmrunfile.x   
 * cigrd.x          walltime    0:09:48
 * tran.x           walltime    0:06:44
   tran.x         
   tdmrunfile.x   
 * cigrd.x          walltime    0:10:01
 * tran.x           walltime    0:06:37
   tran.x         
   tdmrunfile.x   
 * cigrd.x          walltime    0:10:36
 * tran.x           walltime    0:06:41
   tran.x         
   tdmrunfile.x   
 * cigrd.x          walltime    0:10:29
 * tran.x           walltime    0:06:49
   tran.x         
   tdmrunfile.x   

==========================================

