===========================================================
===                   runc                              ===
===           version 7.0.2 , April 2021              ===
===          requires COLUMBUS version Col_7.0.2        ===
===                                                     ===
===   written by: Thomas Mueller                        ===
===   gradient ext. by: Michal Dallos                   ===
===               University of Vienna                  ===
===   maintained by: Felix Plasser                      ===
===               Loughborough University               ===
===========================================================


coremem. (seq.): 200000 MB,  coremem. (par.): 19000 MB
Vdisk size: 0 DP
Reading job control file control.run ... 
 ****** This is an 2c-QDPT MRCISD calculation ****** 
 model space size=4:0:4
SMOLCAS=/home-4/yshen57@jhu.edu/Software/Chemistry/Columbus-7.0.2_OpenMolcas-18.09-col/OpenMolcas/build
Found serial Molcas Installation at /home-4/yshen57@jhu.edu/Software/Chemistry/Columbus-7.0.2_OpenMolcas-18.09-col/OpenMolcas/build
  done 
INFO: keywords nadcoupl and seward are supported for DCI mode only!
seward specified, using also alaska
Creating various directories ... 
 done 
SMOLCAS=/home-4/yshen57@jhu.edu/Software/Chemistry/Columbus-7.0.2_OpenMolcas-18.09-col/OpenMolcas/build
PMOLCAS=
Checking for illegal keywords and keyword combinations ... done 

 Nonadiabatic coupling term calculation type: DCI+DCSF
  States involved in calcualtion:
   DRT1,state1;  DRT1,state2
   DRT1,state1;  DRT1,state3
   DRT1,state1;  DRT1,state4
   DRT1,state2;  DRT1,state3
   DRT1,state2;  DRT1,state4
   DRT1,state3;  DRT1,state4
   DRT2,state1;  DRT2,state2
   DRT2,state1;  DRT2,state3
   DRT2,state1;  DRT2,state4
   DRT2,state2;  DRT2,state3
   DRT2,state2;  DRT2,state4
   DRT2,state3;  DRT2,state4

Additional gradients computed:
   DRT1,state1
   DRT1,state2
   DRT1,state3
   DRT1,state4
   DRT2,state1
   DRT2,state2
   DRT2,state3
   DRT2,state4

Checking for complete set of input files ... 
mcscf calculation without preceeding scf calculation 
will use 
 /scratch/users/yshen57@jhu.edu/Molcas/slow/1.1/mrci/mocoef as starting MOs 
Performing coupled non-rel. SO-CI calculation, nrroots: 4 0 4
starting cidrt.x   -m 200000 < cidrtin > temp at Fri May  6 22:22:48 EDT 2022

 -------------------- cidrt.x ------------------------
 spatial symmetry:  
 total number of configurations          0
 number of reference configurations     0
 --------------------------------------------------- 
 Preparing SO cidrtin files for 1 symmetries
cat ../cidrtin | sed -e 's/^.*input the molecular spatial symmetry/1 \/ molsym/' > cidrtin.so_A 
calling cidrt.x -m 200000 < cidrtin.so_A > cidrtls.soci_A ...
Checking the DRTs for consistency ...
calling reindex.x -i 1 -m 200000  ...
done

 ++++++++++++++++++ input file generation +++++++++++++ 
 runc start: Fri May  6 22:23:07 EDT 2022
 
  runc start: Fri May  6 22:23:07 EDT 2022
 
 starting unik.gets.x > unikls at Fri May  6 22:23:07 EDT 2022

 -------------------- unik.gets.x ------------------------
 --------------------------------------------------- 
 ++++++++++++++++++++ ao integral calculation ++++++++++++++++
starting pymolcas molcas.input.seward > molcas.output.seward  at Fri May  6 22:23:08 EDT 2022

Generating link ln -s ./molcas.OrdInt ORDINT 
 -------------------- seward ------------------------
      Basis set label: N.ANILINE.........
      Basis set label: C.ANILINE.........
      Basis set label: H.ANILINE.........
  Nuclear Coordinates in                   atomic units                                   Angstrom 
     Center  Label                x              y              z                     x              y              z
        1      N1              -4.460005       0.185896       0.002741             -2.360133       0.098372       0.001451
        2      C2              -1.768407      -0.018366      -0.002888             -0.935801      -0.009719      -0.001528
        3      C3              -0.426437      -0.007149      -2.270899             -0.225661      -0.003783      -1.201708
        4      C4              -0.428623      -0.010742       2.267051             -0.226817      -0.005685       1.199672
        5      C5               2.189713      -0.000530      -2.257410              1.158746      -0.000280      -1.194570
        6      C6               2.187962      -0.001120       2.256641              1.157820      -0.000593       1.194163
        7      C7               3.514078       0.003536       0.000442              1.859570       0.001871       0.000234
        8      H8              -5.211950      -0.832966      -1.645739             -2.758045      -0.440786      -0.870887
        9      H9              -5.180063      -0.741519       1.543970             -2.741171      -0.392395       0.817034
       10      H10             -1.429890       0.000373      -4.033282             -0.756665       0.000197      -2.134321
       11      H11             -1.433036      -0.010862       4.029095             -0.758330      -0.005748       2.132105
       12      H12              3.193434      -0.000133      -4.021010              1.689893      -0.000071      -2.127827
       13      H13              3.189792      -0.002125       4.021316              1.687965      -0.001125       2.127989
       14      H14              5.542007       0.007653       0.001276              2.932704       0.004050       0.000675
 
            Nuclear Potential Energy            271.80194348 au
 --------------------------------------------------- 
  >>>>>>>>>>>>> info: preparing drt no 1 out of 1 <<<<<<
starting mcdrt.x -m 200000 < mcdrtin > mcdrtls at Fri May  6 22:28:54 EDT 2022

 -------------------- mcdrt.x ------------------------
  Spin multiplicity: singlet 
  Spatial symmetry (#): 1
  Number of Configurations:       1275 
  --------------------------------------------------- 
 starting mcuft.x at Fri May  6 22:28:55 EDT 2022

 -------------------- mcuft.x ------------------------
 --------------------------------------------------- 
 ++++++++++++++++++++ MCSCF calculation +++++++++++++++
info: taking mocoef file from /scratch/users/yshen57@jhu.edu/Molcas/slow/1.1/mrci/mocoef
adding flag 30 to mcscfin
Writing mcdenin files for mcscf.x for 1 DRTs
adding flag 26 to mcscfin
starting mcscf.x -m 200000 at Fri May  6 22:28:55 EDT 2022

 -------------------- mcscf.x ------------------------
 Individual total energies for all states: 
    DRT #1 state # 1 wt 0.250 total energy=     -285.905179594, rel. (eV)=   0.000000
    DRT #1 state # 2 wt 0.250 total energy=     -285.677179035, rel. (eV)=   6.204214
    DRT #1 state # 3 wt 0.250 total energy=     -285.669102771, rel. (eV)=   6.423980
    DRT #1 state # 4 wt 0.250 total energy=     -285.627676550, rel. (eV)=   7.551245
  --------------------------------------------------- 
 starting mcpc.x -m 200000 < mcpcin > mcpcls at Fri May  6 22:31:49 EDT 2022

 -------------------- mcpc.x ------------------------
 --------------------------------------------------- 
 starting mcpc.x -m 200000 < mcpcin > mcpcls at Fri May  6 22:31:49 EDT 2022

 -------------------- mcpc.x ------------------------
 --------------------------------------------------- 
 starting mcpc.x -m 200000 < mcpcin > mcpcls at Fri May  6 22:31:49 EDT 2022

 -------------------- mcpc.x ------------------------
 --------------------------------------------------- 
 starting mcpc.x -m 200000 < mcpcin > mcpcls at Fri May  6 22:31:49 EDT 2022

 -------------------- mcpc.x ------------------------
 --------------------------------------------------- 
 
========= state properties for state-averaged MCSCF =========
mcscf.drt1.st01.sp
starting exptvl.x -m 200000   at Fri May  6 22:31:49 EDT 2022

 -------------------- exptvl.x ------------------------
  === dipole moment === 
                     X               Y               Z   
   orign x       0.00000000      0.00000000      0.00000000
   orign y       0.00000000      0.00000000      0.00000000
   orign z       0.00000000      0.00000000      0.00000000
   nuclear      -0.94001575     -0.48452775     -0.12756837
   electronic    0.58279762     -0.09551244      0.12026042
   total        -0.35721813     -0.58004019     -0.00730795
   total Dipole moment =   1.73157260    Debye
 --------------------------------------------------- 
 mcscf.drt1.st02.sp
starting exptvl.x -m 200000   at Fri May  6 22:31:50 EDT 2022

 -------------------- exptvl.x ------------------------
  === dipole moment === 
                     X               Y               Z   
   orign x       0.00000000      0.00000000      0.00000000
   orign y       0.00000000      0.00000000      0.00000000
   orign z       0.00000000      0.00000000      0.00000000
   nuclear      -0.94001575     -0.48452775     -0.12756837
   electronic    4.89632513     -0.06680150      0.14261963
   total         3.95630938     -0.55132925      0.01505126
   total Dipole moment =  10.15318950    Debye
 --------------------------------------------------- 
 mcscf.drt1.st03.sp
starting exptvl.x -m 200000   at Fri May  6 22:31:50 EDT 2022

 -------------------- exptvl.x ------------------------
  === dipole moment === 
                     X               Y               Z   
   orign x       0.00000000      0.00000000      0.00000000
   orign y       0.00000000      0.00000000      0.00000000
   orign z       0.00000000      0.00000000      0.00000000
   nuclear      -0.94001575     -0.48452775     -0.12756837
   electronic    0.31902641     -0.03033785      0.12273623
   total        -0.62098934     -0.51486560     -0.00483214
   total Dipole moment =   2.05038607    Debye
 --------------------------------------------------- 
 mcscf.drt1.st04.sp
starting exptvl.x -m 200000   at Fri May  6 22:31:50 EDT 2022

 -------------------- exptvl.x ------------------------
  === dipole moment === 
                     X               Y               Z   
   orign x       0.00000000      0.00000000      0.00000000
   orign y       0.00000000      0.00000000      0.00000000
   orign z       0.00000000      0.00000000      0.00000000
   nuclear      -0.94001575     -0.48452775     -0.12756837
   electronic    5.95970196     -0.12539132      0.14084074
   total         5.01968621     -0.60991907      0.01327237
   total Dipole moment =  12.85266418    Debye
 --------------------------------------------------- 
  using the MCSCF MOs ... 
starting cidrt.x  -m 200000 < cidrtin.1 > cidrtls at Fri May  6 22:31:52 EDT 2022

 -------------------- cidrt.x ------------------------
 total number of orbitals            :   246
 number of frozen core orbitals      :    18
 number of frozen virtual orbitals   :     0
 number of internal orbitals         :    14
 number of external orbitals         :   214
 spatial symmetry:   a  
 
 total number of configurations  158587185
 number of reference configurations  1275
 --------------------------------------------------- 
 starting cidrt.x  -m 200000 < cidrtin.2 > cidrtls at Fri May  6 22:31:54 EDT 2022

 -------------------- cidrt.x ------------------------
 total number of orbitals            :   246
 number of frozen core orbitals      :    18
 number of frozen virtual orbitals   :     0
 number of internal orbitals         :    14
 number of external orbitals         :   214
 spatial symmetry:   a  
 
 total number of configurations  282461366
 number of reference configurations  1666
 --------------------------------------------------- 
 starting tran.x -m 200000  at Fri May  6 22:31:58 EDT 2022

 -------------------- tran.x ------------------------
 --------------------------------------------------- 
  Starting ciudgav with DRT # 1 out of 2 

 *** starting pciudg section *** 
nproc: 48 machinefile:  
assuming machinefile syntax: one host name per line optionally repeated
 section2, MPI_STARTUP:
 /software/apps/mpi/openmpi/3.1/intel/18.0/bin/mpirun -np 48  /home-4/yshen57@jhu.edu/Software/Chemistry/Columbus-7.0.2_OpenMolcas-18.09-col/Columbus/pciudg.x -m 19000 
 -------------------- pciudg.x ------------------------
 type of calculation:          mr-sdci
 number of configurations:     158587185
 total mr-sdci energy             -286.1036597551 
 last mr-sdci energy change           0.0000000000 
 residual                             0.0000062264 
  type of calculation:          mr-sdci
 number of configurations:     158587185
 total mr-sdci energy             -285.9159953850 
 last mr-sdci energy change           0.0000000000 
 residual                             0.0000092742 
  type of calculation:          mr-sdci
 number of configurations:     158587185
 total mr-sdci energy             -285.9139773165 
 last mr-sdci energy change          -0.0000000000 
 residual                             0.0000030341 
  type of calculation:          mr-sdci
 number of configurations:     158587185
 total mr-sdci energy             -285.8649399852 
 last mr-sdci energy change           0.0000000024 
 residual                             0.0000399000 
  --------------------------------------------------- 
 keyinfile returned docipci=0:
starting cipc.x -m 200000 < cipcin > cipcls at Sat May  7 14:00:55 EDT 2022

 -------------------- cipc.x ------------------------
 --------------------------------------------------- 
  Starting ciudgav with DRT # 2 out of 2 

 *** starting pciudg section *** 
nproc: 48 machinefile:  
assuming machinefile syntax: one host name per line optionally repeated
 section2, MPI_STARTUP:
 /software/apps/mpi/openmpi/3.1/intel/18.0/bin/mpirun -np 48  /home-4/yshen57@jhu.edu/Software/Chemistry/Columbus-7.0.2_OpenMolcas-18.09-col/Columbus/pciudg.x -m 19000 
 -------------------- pciudg.x ------------------------
 type of calculation:          mr-sdci
 number of configurations:     282461366
 total mr-sdci energy             -285.9473343163 
 last mr-sdci energy change           0.0000000000 
 residual                             0.0000082550 
  type of calculation:          mr-sdci
 number of configurations:     282461366
 total mr-sdci energy             -285.9262483174 
 last mr-sdci energy change           0.0000000000 
 residual                             0.0000094784 
  type of calculation:          mr-sdci
 number of configurations:     282461366
 total mr-sdci energy             -285.9202085057 
 last mr-sdci energy change           0.0000000000 
 residual                             0.0000084971 
  type of calculation:          mr-sdci
 number of configurations:     282461366
 total mr-sdci energy             -285.9170902302 
 last mr-sdci energy change           0.0000000001 
 residual                             0.0000156890 
  --------------------------------------------------- 
 keyinfile returned docipci=0:
starting cipc.x -m 200000 < cipcin > cipcls at Mon May  9 01:51:18 EDT 2022

 -------------------- cipc.x ------------------------
 --------------------------------------------------- 
 Reindex call
run_socinr: imult=1 irrep=1 
opening file =ciudgls.drt1.sp
opening file =ciudgls.drt1.sp
opening file =ciudgls.drt1.sp
opening file =ciudgls.drt1.sp
run_socinr: imult=3 irrep=1 
opening file =ciudgls.drt2.sp
opening file =ciudgls.drt2.sp
opening file =ciudgls.drt2.sp
opening file =ciudgls.drt2.sp
 copying /scratch/users/yshen57@jhu.edu/Molcas/slow/1.1/mrci/cidrtfl.so__A --> cidrtfl.so__A 
 copying /scratch/users/yshen57@jhu.edu/Molcas/slow/1.1/mrci/cidrtfl.so__A --> cidrtfl.so__A 
starting reindex.x -m 200000 > reindexls at Mon May  9 01:51:32 EDT 2022

 -------------------- reindex.x ------------------------
 --------------------------------------------------- 
 1      1        1           civfl_1_A             1      1    0+       1             1         civfl.so__A
1      1        2           civfl_1_A             1      1    0+       2    1005971284         civfl.so__A
1      1        3           civfl_1_A             1      1    0+       3    2011942567         civfl.so__A
1      1        4           civfl_1_A             1      1    0+       4    3017913850         civfl.so__A
3      1        1           civfl_3_A             1      3    0+       5    4023885133         civfl.so__A
3      1        1           civfl_3_A             1      3    1+       6    5029856416         civfl.so__A
3      1        1           civfl_3_A             1      3    1-       7    6035827699         civfl.so__A
3      1        2           civfl_3_A             1      3    0+       8    7041798982         civfl.so__A
3      1        2           civfl_3_A             1      3    1+       9    8047770265         civfl.so__A
3      1        2           civfl_3_A             1      3    1-      10    9053741548         civfl.so__A
3      1        3           civfl_3_A             1      3    0+      11   10059712831         civfl.so__A
3      1        3           civfl_3_A             1      3    1+      12   11065684114         civfl.so__A
3      1        3           civfl_3_A             1      3    1-      13   12071655397         civfl.so__A
3      1        4           civfl_3_A             1      3    0+      14   13077626680         civfl.so__A
3      1        4           civfl_3_A             1      3    1+      15   14083597963         civfl.so__A
3      1        4           civfl_3_A             1      3    1-      16   15089569246         civfl.so__A
 Executing ciudg.x  for gamma =A ...

 *** starting pciudg section *** 
nproc: 48 machinefile:  
assuming machinefile syntax: one host name per line optionally repeated
 section2, MPI_STARTUP:
 /software/apps/mpi/openmpi/3.1/intel/18.0/bin/mpirun -np 48  /home-4/yshen57@jhu.edu/Software/Chemistry/Columbus-7.0.2_OpenMolcas-18.09-col/Columbus/pciudg.x -m 19000 
 -------------------- pciudg.x ------------------------
 type of calculation:          mr-sdci
 number of configurations:     1005971283
 total mr-sdci energy             -286.1036597584 
 last mr-sdci energy change           0.0000000033 
 residual                            35.8580000000 
  type of calculation:          mr-sdci
 number of configurations:     1005971283
 total mr-sdci energy             -285.9473343205 
 last mr-sdci energy change           0.0313390000 
 residual                            35.7020000000 
  type of calculation:          mr-sdci
 number of configurations:     1005971283
 total mr-sdci energy             -285.9473343202 
 last mr-sdci energy change           0.0333570000 
 residual                            35.7020000000 
  type of calculation:          mr-sdci
 number of configurations:     1005971283
 total mr-sdci energy             -285.9473343194 
 last mr-sdci energy change           0.0823940000 
 residual                            35.7020000000 
  type of calculation:          mr-sdci
 number of configurations:     1005971283
 total mr-sdci energy             -285.9262483200 
 last mr-sdci energy change          -0.0210860000 
 residual                            35.6810000000 
  type of calculation:          mr-sdci
 number of configurations:     1005971283
 total mr-sdci energy             -285.9262483193 
 last mr-sdci energy change          -0.0210860000 
 residual                            35.6810000000 
  type of calculation:          mr-sdci
 number of configurations:     1005971283
 total mr-sdci energy             -285.9262483181 
 last mr-sdci energy change          -0.0210860000 
 residual                            35.6810000000 
  type of calculation:          mr-sdci
 number of configurations:     1005971283
 total mr-sdci energy             -285.9202085140 
 last mr-sdci energy change          -0.0060398000 
 residual                            35.6750000000 
  type of calculation:          mr-sdci
 number of configurations:     1005971283
 total mr-sdci energy             -285.9202085133 
 last mr-sdci energy change          -0.0060398000 
 residual                            35.6750000000 
  type of calculation:          mr-sdci
 number of configurations:     1005971283
 total mr-sdci energy             -285.9202085064 
 last mr-sdci energy change          -0.0060398000 
 residual                            35.6750000000 
  type of calculation:          mr-sdci
 number of configurations:     1005971283
 total mr-sdci energy             -285.9170902421 
 last mr-sdci energy change          -0.0031183000 
 residual                            35.6710000000 
  type of calculation:          mr-sdci
 number of configurations:     1005971283
 total mr-sdci energy             -285.9170902204 
 last mr-sdci energy change          -0.0031183000 
 residual                            35.6710000000 
  type of calculation:          mr-sdci
 number of configurations:     1005971283
 total mr-sdci energy             -285.9170902171 
 last mr-sdci energy change          -0.0031183000 
 residual                            35.6710000000 
  type of calculation:          mr-sdci
 number of configurations:     1005971283
 total mr-sdci energy             -285.9159953638 
 last mr-sdci energy change          -0.0010949000 
 residual                            35.6700000000 
  type of calculation:          mr-sdci
 number of configurations:     1005971283
 total mr-sdci energy             -285.9139773131 
 last mr-sdci energy change          -0.0031129000 
 residual                            35.6680000000 
  type of calculation:          mr-sdci
 number of configurations:     1005971283
 total mr-sdci energy             -285.8649399844 
 last mr-sdci energy change          -0.0521500000 
 residual                            35.6190000000 
  --------------------------------------------------- 
 ************* Results for Spin-Orbit CI gamma=A **************** 
Final spin-orbit CI state energies: 


-------------- HT matrix in AU ----------------  
-35.858011    
 0.000000    -35.670346    
 0.000000     0.000000    -35.668328    
 0.000000     0.000000     0.000000    -35.619291    
-0.000005     0.000010    -0.000002     0.000000    -35.701685    
 0.000000    -0.000001    -0.000001     0.000000     0.000000    -35.701685    
 0.000002    -0.000003    -0.000003    -0.000002     0.000000    -0.000000    -35.701685    
 0.000002     0.000000    -0.000000    -0.000006     0.000000     0.000001    -0.000001    -35.680599    
-0.000002    -0.000001     0.000000     0.000000    -0.000001     0.000000    -0.000001     0.000000    -35.680599    
-0.000007     0.000002    -0.000001     0.000001     0.000001     0.000001     0.000000    -0.000000     0.000000    -35.680599    
-0.000016     0.000003    -0.000001    -0.000000     0.000000    -0.000001     0.000000     0.000000    -0.000000     0.000001    -35.674559    
 0.000001    -0.000000    -0.000001    -0.000000     0.000001     0.000000     0.000007     0.000000     0.000000     0.000001    -0.000000    -35.674559    
 0.000004    -0.000000     0.000002     0.000002    -0.000000    -0.000007     0.000000    -0.000001    -0.000001     0.000000     0.000000    -0.000000    -35.674559    
-0.000015    -0.000004     0.000001    -0.000001     0.000000    -0.000001     0.000000     0.000000     0.000004     0.000000     0.000000    -0.000001     0.000000    -35.671441    
 0.000001    -0.000000    -0.000001     0.000001     0.000001     0.000000     0.000008    -0.000004     0.000000    -0.000000     0.000001     0.000000     0.000005     0.000000    -35.671441    
 0.000004     0.000001     0.000002     0.000000    -0.000000    -0.000008     0.000000    -0.000000     0.000000     0.000000    -0.000000    -0.000005     0.000000    -0.000000    -0.000000    -35.671441    
-------------- HT matrix in eV ---------------- 
 -975.746   
    0.000    -970.640   
    0.000       0.000    -970.585   
    0.000       0.000       0.000    -969.250   
   -0.000       0.000      -0.000       0.000    -971.492   
    0.000      -0.000      -0.000       0.000       0.000    -971.492   
    0.000      -0.000      -0.000      -0.000       0.000      -0.000    -971.492   
    0.000       0.000      -0.000      -0.000       0.000       0.000      -0.000    -970.919   
   -0.000      -0.000       0.000       0.000      -0.000       0.000      -0.000       0.000    -970.919   
   -0.000       0.000      -0.000       0.000       0.000       0.000       0.000      -0.000       0.000    -970.919   
   -0.000       0.000      -0.000      -0.000       0.000      -0.000       0.000       0.000      -0.000       0.000    -970.754   
    0.000      -0.000      -0.000      -0.000       0.000       0.000       0.000       0.000       0.000       0.000      -0.000    -970.754   
    0.000      -0.000       0.000       0.000      -0.000      -0.000       0.000      -0.000      -0.000       0.000       0.000      -0.000    -970.754   
   -0.000      -0.000       0.000      -0.000       0.000      -0.000       0.000       0.000       0.000       0.000       0.000      -0.000       0.000    -970.669   
    0.000      -0.000      -0.000       0.000       0.000       0.000       0.000      -0.000       0.000      -0.000       0.000       0.000       0.000       0.000    -970.669   
    0.000       0.000       0.000       0.000      -0.000      -0.000       0.000      -0.000       0.000       0.000      -0.000      -0.000       0.000      -0.000      -0.000    -970.669   
-------------- HT matrix in cm-1 ------------------- 
Eref = -35.85801059
     0.00   
     0.00    41187.64   
     0.00        0.00    41630.55   
     0.00        0.00        0.00    52393.02   
    -1.08        2.12       -0.42        0.00    34309.53   
     0.08       -0.12       -0.25        0.04        0.00    34309.53   
     0.34       -0.58       -0.59       -0.41        0.00        0.00    34309.53   
     0.45        0.07       -0.01       -1.35        0.00        0.23       -0.12    38937.38   
    -0.41       -0.23        0.07        0.04       -0.23        0.00       -0.19        0.00    38937.38   
    -1.55        0.54       -0.20        0.20        0.12        0.19        0.00        0.00        0.00    38937.38   
    -3.53        0.70       -0.15       -0.10        0.00       -0.27        0.04        0.00       -0.07        0.32    40262.96   
     0.20       -0.07       -0.15       -0.10        0.27        0.00        1.46        0.07        0.00        0.16        0.00    40262.96   
     0.95       -0.02        0.52        0.53       -0.04       -1.46        0.00       -0.32       -0.16        0.00        0.00        0.00    40262.96   
    -3.36       -0.85        0.23       -0.15        0.00       -0.31        0.04        0.00        0.87        0.05        0.00       -0.18        0.02    40947.35   
     0.17       -0.02       -0.17        0.11        0.31        0.00        1.72       -0.87        0.00       -0.05        0.18        0.00        1.17        0.00    40947.35   
     0.83        0.26        0.44        0.08       -0.04       -1.72        0.00       -0.05        0.05        0.00       -0.02       -1.17        0.00        0.00        0.00    40947.35   


Spin-Orbit CI: perturbational estimate of Spin-Orbit CI energies and wavefunctions 
                SO   1         SO   2         SO   3         SO   4         SO   5         SO   6         SO   7         SO   8

   energy  -286.10365976  -285.94733432  -285.94733432  -285.94733432  -285.92624832  -285.92624832  -285.92624832  -285.92020851
 
   NR   1     0.99999999     0.00000695    -0.00000017     0.00003251     0.00000760     0.00000031    -0.00004199    -0.00000810
   NR   2    -0.00000000     0.00005299    -0.00000133     0.00031552    -0.00003491    -0.00016621    -0.00019976     0.00010363
   NR   3     0.00000000     0.00009176     0.00000862    -0.00004862     0.00000502     0.00004439     0.00006573     0.00037883
   NR   4     0.00000000     0.00002088    -0.00000844     0.00000236     0.00009804     0.00000813    -0.00002458     0.00004217
   NR   5     0.00003162     0.10260350    -0.01839995    -0.99455209    -0.00000388     0.00005395     0.00001276     0.00002378
   NR   6    -0.00000222     0.28698410     0.95786153     0.01188573     0.00005107     0.00001551     0.00003380     0.00022848
   NR   7    -0.00001003     0.95242454    -0.28664017     0.10356045    -0.00003106     0.00003597    -0.00000795     0.00009563
   NR   8    -0.00001166     0.00001142    -0.00005441     0.00000218     0.99070041     0.09446419    -0.09792320     0.00023822
   NR   9     0.00001046     0.00004327    -0.00001242    -0.00004439     0.11725854    -0.95782908     0.26232358     0.00011519
   NR  10     0.00003972    -0.00001427    -0.00003799     0.00002608     0.06901350     0.27136643     0.95999857     0.00001500
   NR  11     0.00008776     0.00000747     0.00004601    -0.00000010    -0.00001079    -0.00011333    -0.00021854    -0.13171526
   NR  12    -0.00000494    -0.00023765     0.00007100     0.00002064    -0.00005775    -0.00003705    -0.00010956     0.39266463
   NR  13    -0.00002374     0.00007085     0.00023412    -0.00000316     0.00025269    -0.00009144     0.00000771    -0.91019903
   NR  14     0.00008197     0.00000735     0.00004661    -0.00000004    -0.00005230     0.00040800    -0.00013572     0.00013051
   NR  15    -0.00000413    -0.00025157     0.00007508     0.00001967     0.00043015     0.00004774    -0.00001810     0.00159609
   NR  16    -0.00002014     0.00007496     0.00024807    -0.00000326     0.00001983     0.00002635    -0.00000888     0.00066990

                SO   9         SO  10         SO  11         SO  12         SO  13         SO  14         SO  15         SO  16

   energy  -285.92020851  -285.92020851  -285.91709024  -285.91709022  -285.91709022  -285.91599536  -285.91397731  -285.86493998
 
   NR   1    -0.00000990    -0.00009015     0.00008439    -0.00000051    -0.00000459     0.00000023    -0.00000001    -0.00000000
   NR   2    -0.00004538    -0.00074853    -0.00367637    -0.00022792    -0.00003787     0.99999284     0.00000071    -0.00000000
   NR   3     0.00004268     0.00016440     0.00018028    -0.00074775    -0.00009830     0.00000132    -0.99999960    -0.00000000
   NR   4     0.00000933     0.00001421    -0.00001409    -0.00000131     0.00001067    -0.00000005     0.00000002    -0.99999999
   NR   5    -0.00004010     0.00000109    -0.00000292    -0.00001592    -0.00004440     0.00030834     0.00005764    -0.00000005
   NR   6     0.00009797    -0.00001186    -0.00001489    -0.00025691     0.00005544    -0.00001781     0.00003429    -0.00000205
   NR   7    -0.00022498     0.00000873    -0.00000726    -0.00005302    -0.00025356    -0.00008359     0.00007998     0.00002254
   NR   8     0.00004780     0.00003392    -0.00000319     0.00006857     0.00042798     0.00003075     0.00000273     0.00010032
   NR   9     0.00004860    -0.00003286    -0.00041432     0.00012314    -0.00002392    -0.00010422    -0.00002481    -0.00000273
   NR  10    -0.00012042     0.00024005    -0.00002332     0.00001039     0.00002367     0.00023937     0.00007551    -0.00001462
   NR  11    -0.04457301     0.99028462    -0.00001330    -0.00008506    -0.00024281     0.00075275     0.00011107     0.00000810
   NR  12    -0.91961621     0.01083509    -0.00015173    -0.00169019     0.00036181    -0.00007527     0.00011246     0.00000814
   NR  13    -0.39027705    -0.13863016    -0.00004096    -0.00035139    -0.00168032    -0.00002745    -0.00038383    -0.00004399
   NR  14    -0.00022184     0.00000599    -0.97240693     0.22912088    -0.04376726    -0.00352437    -0.00034228     0.00001294
   NR  15     0.00068192    -0.00001476    -0.00526111    -0.20912583    -0.97787288    -0.00010416     0.00025216    -0.00000997
   NR  16    -0.00157973     0.00005189     0.23320232     0.95066625    -0.20456243     0.00106618    -0.00064851    -0.00000670
rescaling new expansion vector ... old norm=   4379.3341791821

 model space basis from reindexls .. 
 --SO-CI-------         -----NR-CI-------             ---model space---- 
 Gamma  root             S   irrep   root                S   ms* 
A          1             1   A         1                 1   0+
A          2             1   A         2                 1   0+
A          3             1   A         3                 1   0+
A          4             1   A         4                 1   0+
A          5             3   A         1                 3   0+
A          6             3   A         1                 3   1+
A          7             3   A         1                 3   1-
A          8             3   A         2                 3   0+
A          9             3   A         2                 3   1+
A         10             3   A         2                 3   1-
A         11             3   A         3                 3   0+
A         12             3   A         3                 3   1+
A         13             3   A         3                 3   1-
A         14             3   A         4                 3   0+
A         15             3   A         4                 3   1+
A         16             3   A         4                 3   1-

************************** SUMMARY *********************************

--------------  SO matrix for irrep A in eV ---------------- 
|1,0+;1,A,1>  -975.746   
|1,0+;1,A,2>     0.000    -970.640   
|1,0+;1,A,3>     0.000       0.000    -970.585   
|1,0+;1,A,4>     0.000       0.000       0.000    -969.250   
|3,0+;3,A,1>    -0.000       0.000      -0.000       0.000    -971.492   
|3,1+;3,A,1>     0.000      -0.000      -0.000       0.000       0.000    -971.492   
|3,1-;3,A,1>     0.000      -0.000      -0.000      -0.000       0.000      -0.000    -971.492   
|3,0+;3,A,2>     0.000       0.000      -0.000      -0.000       0.000       0.000      -0.000    -970.919   
|3,1+;3,A,2>    -0.000      -0.000       0.000       0.000      -0.000       0.000      -0.000       0.000    -970.919   
|3,1-;3,A,2>    -0.000       0.000      -0.000       0.000       0.000       0.000       0.000      -0.000       0.000    -970.919   
|3,0+;3,A,3>    -0.000       0.000      -0.000      -0.000       0.000      -0.000       0.000       0.000      -0.000       0.000    -970.754   
|3,1+;3,A,3>     0.000      -0.000      -0.000      -0.000       0.000       0.000       0.000       0.000       0.000       0.000      -0.000    -970.754   
|3,1-;3,A,3>     0.000      -0.000       0.000       0.000      -0.000      -0.000       0.000      -0.000      -0.000       0.000       0.000      -0.000    -970.754   
|3,0+;3,A,4>    -0.000      -0.000       0.000      -0.000       0.000      -0.000       0.000       0.000       0.000       0.000       0.000      -0.000       0.000    -970.669   
|3,1+;3,A,4>     0.000      -0.000      -0.000       0.000       0.000       0.000       0.000      -0.000       0.000      -0.000       0.000       0.000       0.000       0.000    -970.669   
|3,1-;3,A,4>     0.000       0.000       0.000       0.000      -0.000      -0.000       0.000      -0.000       0.000       0.000      -0.000      -0.000       0.000      -0.000      -0.000    -970.669   

--------------  SO matrix for irrep A in cm-1 ------------------- 
Eref = -35.85801059
|1,0+;1,A,1>      0.00   
|1,0+;1,A,2>      0.00    41187.64   
|1,0+;1,A,3>      0.00        0.00    41630.55   
|1,0+;1,A,4>      0.00        0.00        0.00    52393.02   
|3,0+;3,A,1>     -1.08        2.12       -0.42        0.00    34309.53   
|3,1+;3,A,1>      0.08       -0.12       -0.25        0.04        0.00    34309.53   
|3,1-;3,A,1>      0.34       -0.58       -0.59       -0.41        0.00        0.00    34309.53   
|3,0+;3,A,2>      0.45        0.07       -0.01       -1.35        0.00        0.23       -0.12    38937.38   
|3,1+;3,A,2>     -0.41       -0.23        0.07        0.04       -0.23        0.00       -0.19        0.00    38937.38   
|3,1-;3,A,2>     -1.55        0.54       -0.20        0.20        0.12        0.19        0.00        0.00        0.00    38937.38   
|3,0+;3,A,3>     -3.53        0.70       -0.15       -0.10        0.00       -0.27        0.04        0.00       -0.07        0.32    40262.96   
|3,1+;3,A,3>      0.20       -0.07       -0.15       -0.10        0.27        0.00        1.46        0.07        0.00        0.16        0.00    40262.96   
|3,1-;3,A,3>      0.95       -0.02        0.52        0.53       -0.04       -1.46        0.00       -0.32       -0.16        0.00        0.00        0.00    40262.96   
|3,0+;3,A,4>     -3.36       -0.85        0.23       -0.15        0.00       -0.31        0.04        0.00        0.87        0.05        0.00       -0.18        0.02    40947.35   
|3,1+;3,A,4>      0.17       -0.02       -0.17        0.11        0.31        0.00        1.72       -0.87        0.00       -0.05        0.18        0.00        1.17        0.00    40947.35   
|3,1-;3,A,4>      0.83        0.26        0.44        0.08       -0.04       -1.72        0.00       -0.05        0.05        0.00       -0.02       -1.17        0.00        0.00        0.00    40947.35   


 ** perturbational estimate of Spin-Orbit CI energies and wavefunctions in model space basis** 

                      A  1         A  2         A  3         A  4         A  5         A  6         A  7         A  8

            energy  -286.10365976  -285.94733432  -285.94733432  -285.94733432  -285.92624832  -285.92624832  -285.92624832  -285.92020851
          
   |1,0+;1,A,1>     0.99999999     0.00000695    -0.00000017     0.00003251     0.00000760     0.00000031    -0.00004199    -0.00000810
   |1,0+;1,A,2>    -0.00000000     0.00005299    -0.00000133     0.00031552    -0.00003491    -0.00016621    -0.00019976     0.00010363
   |1,0+;1,A,3>     0.00000000     0.00009176     0.00000862    -0.00004862     0.00000502     0.00004439     0.00006573     0.00037883
   |1,0+;1,A,4>     0.00000000     0.00002088    -0.00000844     0.00000236     0.00009804     0.00000813    -0.00002458     0.00004217
   |3,0+;3,A,1>     0.00003162     0.10260350    -0.01839995    -0.99455209    -0.00000388     0.00005395     0.00001276     0.00002378
   |3,1+;3,A,1>    -0.00000222     0.28698410     0.95786153     0.01188573     0.00005107     0.00001551     0.00003380     0.00022848
   |3,1-;3,A,1>    -0.00001003     0.95242454    -0.28664017     0.10356045    -0.00003106     0.00003597    -0.00000795     0.00009563
   |3,0+;3,A,2>    -0.00001166     0.00001142    -0.00005441     0.00000218     0.99070041     0.09446419    -0.09792320     0.00023822
   |3,1+;3,A,2>     0.00001046     0.00004327    -0.00001242    -0.00004439     0.11725854    -0.95782908     0.26232358     0.00011519
   |3,1-;3,A,2>     0.00003972    -0.00001427    -0.00003799     0.00002608     0.06901350     0.27136643     0.95999857     0.00001500
   |3,0+;3,A,3>     0.00008776     0.00000747     0.00004601    -0.00000010    -0.00001079    -0.00011333    -0.00021854    -0.13171526
   |3,1+;3,A,3>    -0.00000494    -0.00023765     0.00007100     0.00002064    -0.00005775    -0.00003705    -0.00010956     0.39266463
   |3,1-;3,A,3>    -0.00002374     0.00007085     0.00023412    -0.00000316     0.00025269    -0.00009144     0.00000771    -0.91019903
   |3,0+;3,A,4>     0.00008197     0.00000735     0.00004661    -0.00000004    -0.00005230     0.00040800    -0.00013572     0.00013051
   |3,1+;3,A,4>    -0.00000413    -0.00025157     0.00007508     0.00001967     0.00043015     0.00004774    -0.00001810     0.00159609
   |3,1-;3,A,4>    -0.00002014     0.00007496     0.00024807    -0.00000326     0.00001983     0.00002635    -0.00000888     0.00066990

                      A  9         A 10         A 11         A 12         A 13         A 14         A 15         A 16

            energy  -285.92020851  -285.92020851  -285.91709024  -285.91709022  -285.91709022  -285.91599536  -285.91397731  -285.86493998
          
   |1,0+;1,A,1>    -0.00000990    -0.00009015     0.00008439    -0.00000051    -0.00000459     0.00000023    -0.00000001    -0.00000000
   |1,0+;1,A,2>    -0.00004538    -0.00074853    -0.00367637    -0.00022792    -0.00003787     0.99999284     0.00000071    -0.00000000
   |1,0+;1,A,3>     0.00004268     0.00016440     0.00018028    -0.00074775    -0.00009830     0.00000132    -0.99999960    -0.00000000
   |1,0+;1,A,4>     0.00000933     0.00001421    -0.00001409    -0.00000131     0.00001067    -0.00000005     0.00000002    -0.99999999
   |3,0+;3,A,1>    -0.00004010     0.00000109    -0.00000292    -0.00001592    -0.00004440     0.00030834     0.00005764    -0.00000005
   |3,1+;3,A,1>     0.00009797    -0.00001186    -0.00001489    -0.00025691     0.00005544    -0.00001781     0.00003429    -0.00000205
   |3,1-;3,A,1>    -0.00022498     0.00000873    -0.00000726    -0.00005302    -0.00025356    -0.00008359     0.00007998     0.00002254
   |3,0+;3,A,2>     0.00004780     0.00003392    -0.00000319     0.00006857     0.00042798     0.00003075     0.00000273     0.00010032
   |3,1+;3,A,2>     0.00004860    -0.00003286    -0.00041432     0.00012314    -0.00002392    -0.00010422    -0.00002481    -0.00000273
   |3,1-;3,A,2>    -0.00012042     0.00024005    -0.00002332     0.00001039     0.00002367     0.00023937     0.00007551    -0.00001462
   |3,0+;3,A,3>    -0.04457301     0.99028462    -0.00001330    -0.00008506    -0.00024281     0.00075275     0.00011107     0.00000810
   |3,1+;3,A,3>    -0.91961621     0.01083509    -0.00015173    -0.00169019     0.00036181    -0.00007527     0.00011246     0.00000814
   |3,1-;3,A,3>    -0.39027705    -0.13863016    -0.00004096    -0.00035139    -0.00168032    -0.00002745    -0.00038383    -0.00004399
   |3,0+;3,A,4>    -0.00022184     0.00000599    -0.97240693     0.22912088    -0.04376726    -0.00352437    -0.00034228     0.00001294
   |3,1+;3,A,4>     0.00068192    -0.00001476    -0.00526111    -0.20912583    -0.97787288    -0.00010416     0.00025216    -0.00000997
   |3,1-;3,A,4>    -0.00157973     0.00005189     0.23320232     0.95066625    -0.20456243     0.00106618    -0.00064851    -0.00000670
rescaling new expansion vector ... old norm=   4379.3341791821

Sorted Energies:
1  -286.10365976 
2  -285.94733432 
3  -285.94733432 
4  -285.94733432 
5  -285.92624832 
6  -285.92624832 
7  -285.92624832 
8  -285.92020851 
9  -285.92020851 
10  -285.92020851 
11  -285.91709024 
12  -285.91709022 
13  -285.91709022 
14  -285.91599536 
15  -285.91397731 
16  -285.86493998 
Not computing transition moment with identical bra and ket.
 Calculating transition moment for (1,1) => (1,2)
 starting transci.x -m 200000 at Mon May  9 03:48:08 EDT 2022

 -------------------- transci.x ------------------------

                          State No. 1            State No. 2

   Space symmetry:           a                      a   
   No. of CSFs:          ********               ********
   State energies:      -286.10365976          -285.91599538  a.u.

   Transition energy:     0.18766437  a.u.
   Transition energy:     5.11        eV

       Transition moment components:

                 x            y            z

electron         -0.065658    -0.067175     0.053583  e*bohr
frozen core       0.000000     0.000000     0.000000  e*bohr
total (elec)     -0.065658    -0.067175     0.053583  e*bohr


   Tr.dipole length:     0.108142    e*bohr
   Oscillator strength :  0.001463
   Einstein A coef.:     0.1655E+07  1/sec
   Einstein B coef.:     0.4746E+07  sec/g

                 x            y            z

<L> electron    -0.025979    -0.141402     0.364504  e*bohr


   <L> value length:     0.391832    e*bohr
 --------------------------------------------------- 
  Calculating transition moment for (1,1) => (1,3)
 starting transci.x -m 200000 at Mon May  9 03:50:25 EDT 2022

 -------------------- transci.x ------------------------

                          State No. 1            State No. 2

   Space symmetry:           a                      a   
   No. of CSFs:          ********               ********
   State energies:      -286.10365976          -285.91397732  a.u.

   Transition energy:     0.18968244  a.u.
   Transition energy:     5.16        eV

       Transition moment components:

                 x            y            z

electron          0.001782     0.012626     0.287054  e*bohr
frozen core       0.000000     0.000000     0.000000  e*bohr
total (elec)      0.001782     0.012626     0.287054  e*bohr


   Tr.dipole length:     0.287337    e*bohr
   Oscillator strength :  0.010440
   Einstein A coef.:     0.1207E+08  1/sec
   Einstein B coef.:     0.3351E+08  sec/g

                 x            y            z

<L> electron    -0.015508    -0.451126    -0.081031  e*bohr


   <L> value length:     0.458608    e*bohr
 --------------------------------------------------- 
  Calculating transition moment for (1,1) => (1,4)
 starting transci.x -m 200000 at Mon May  9 03:52:42 EDT 2022

 -------------------- transci.x ------------------------

                          State No. 1            State No. 2

   Space symmetry:           a                      a   
   No. of CSFs:          ********               ********
   State energies:      -286.10365976          -285.86493999  a.u.

   Transition energy:     0.23871977  a.u.
   Transition energy:     6.50        eV

       Transition moment components:

                 x            y            z

electron         -0.017840    -0.000262     0.038470  e*bohr
frozen core       0.000000     0.000000     0.000000  e*bohr
total (elec)     -0.017840    -0.000262     0.038470  e*bohr


   Tr.dipole length:     0.042406    e*bohr
   Oscillator strength :  0.000286
   Einstein A coef.:     0.5240E+06  1/sec
   Einstein B coef.:     0.7298E+06  sec/g

                 x            y            z

<L> electron     0.458974    -0.045882     0.003197  e*bohr


   <L> value length:     0.461272    e*bohr
 --------------------------------------------------- 
 Not computing transition moment with identical bra and ket.
 Calculating transition moment for (1,2) => (1,3)
 starting transci.x -m 200000 at Mon May  9 03:54:58 EDT 2022

 -------------------- transci.x ------------------------

                          State No. 1            State No. 2

   Space symmetry:           a                      a   
   No. of CSFs:          ********               ********
   State energies:      -285.91599538          -285.91397732  a.u.

   Transition energy:     0.00201807  a.u.
   Transition energy:     0.05        eV

       Transition moment components:

                 x            y            z

electron          0.942581    -0.000598    -0.070825  e*bohr
frozen core       0.000000     0.000000     0.000000  e*bohr
total (elec)      0.942581    -0.000598    -0.070825  e*bohr


   Tr.dipole length:     0.945238    e*bohr
   Oscillator strength :  0.001202
   Einstein A coef.:     0.1573E+03  1/sec
   Einstein B coef.:     0.3626E+09  sec/g

                 x            y            z

<L> electron     0.122956     0.037060    -0.001301  e*bohr


   <L> value length:     0.128426    e*bohr
 --------------------------------------------------- 
  Calculating transition moment for (1,2) => (1,4)
 starting transci.x -m 200000 at Mon May  9 03:57:11 EDT 2022

 -------------------- transci.x ------------------------

                          State No. 1            State No. 2

   Space symmetry:           a                      a   
   No. of CSFs:          ********               ********
   State energies:      -285.91599538          -285.86493999  a.u.

   Transition energy:     0.05105540  a.u.
   Transition energy:     1.39        eV

       Transition moment components:

                 x            y            z

electron          0.029412     0.001549     0.142597  e*bohr
frozen core       0.000000     0.000000     0.000000  e*bohr
total (elec)      0.029412     0.001549     0.142597  e*bohr


   Tr.dipole length:     0.145607    e*bohr
   Oscillator strength :  0.000722
   Einstein A coef.:     0.6043E+05  1/sec
   Einstein B coef.:     0.8604E+07  sec/g

                 x            y            z

<L> electron     0.023763    -0.630213    -0.037213  e*bohr


   <L> value length:     0.631758    e*bohr
 --------------------------------------------------- 
 Not computing transition moment with identical bra and ket.
 Calculating transition moment for (1,3) => (1,4)
 starting transci.x -m 200000 at Mon May  9 03:59:23 EDT 2022

 -------------------- transci.x ------------------------

                          State No. 1            State No. 2

   Space symmetry:           a                      a   
   No. of CSFs:          ********               ********
   State energies:      -285.91397732          -285.86493999  a.u.

   Transition energy:     0.04903733  a.u.
   Transition energy:     1.33        eV

       Transition moment components:

                 x            y            z

electron          0.095554     0.042493    -0.026360  e*bohr
frozen core       0.000000     0.000000     0.000000  e*bohr
total (elec)      0.095554     0.042493    -0.026360  e*bohr


   Tr.dipole length:     0.107847    e*bohr
   Oscillator strength :  0.000380
   Einstein A coef.:     0.2938E+05  1/sec
   Einstein B coef.:     0.4720E+07  sec/g

                 x            y            z

<L> electron     0.001336     0.098788    -0.129683  e*bohr


   <L> value length:     0.163029    e*bohr
 --------------------------------------------------- 
 Not computing transition moment with identical bra and ket.
Not computing transition moment with identical bra and ket.
 Calculating transition moment for (2,1) => (2,2)
 starting transci.x -m 200000 at Mon May  9 04:01:36 EDT 2022

 -------------------- transci.x ------------------------

                          State No. 1            State No. 2

   Space symmetry:           a                      a   
   No. of CSFs:          ********               ********
   State energies:      -285.94733432          -285.92624832  a.u.

   Transition energy:     0.02108600  a.u.
   Transition energy:     0.57        eV

       Transition moment components:

                 x            y            z

electron          0.021141     0.009377    -0.140472  e*bohr
frozen core       0.000000     0.000000     0.000000  e*bohr
total (elec)      0.021141     0.009377    -0.140472  e*bohr


   Tr.dipole length:     0.142363    e*bohr
   Oscillator strength :  0.000285
   Einstein A coef.:     0.4070E+04  1/sec
   Einstein B coef.:     0.8225E+07  sec/g

                 x            y            z

<L> electron     0.016730    -0.894376    -0.012983  e*bohr


   <L> value length:     0.894627    e*bohr
 --------------------------------------------------- 
  Calculating transition moment for (2,1) => (2,3)
 starting transci.x -m 200000 at Mon May  9 04:05:47 EDT 2022

 -------------------- transci.x ------------------------

                          State No. 1            State No. 2

   Space symmetry:           a                      a   
   No. of CSFs:          ********               ********
   State energies:      -285.94733432          -285.92020851  a.u.

   Transition energy:     0.02712581  a.u.
   Transition energy:     0.74        eV

       Transition moment components:

                 x            y            z

electron         -0.116657    -0.071657    -0.025344  e*bohr
frozen core       0.000000     0.000000     0.000000  e*bohr
total (elec)     -0.116657    -0.071657    -0.025344  e*bohr


   Tr.dipole length:     0.139233    e*bohr
   Oscillator strength :  0.000351
   Einstein A coef.:     0.8287E+04  1/sec
   Einstein B coef.:     0.7867E+07  sec/g

                 x            y            z

<L> electron    -0.005504    -0.053034     0.102630  e*bohr


   <L> value length:     0.115653    e*bohr
 --------------------------------------------------- 
  Calculating transition moment for (2,1) => (2,4)
 starting transci.x -m 200000 at Mon May  9 04:09:56 EDT 2022

 -------------------- transci.x ------------------------

                          State No. 1            State No. 2

   Space symmetry:           a                      a   
   No. of CSFs:          ********               ********
   State energies:      -285.94733432          -285.91709023  a.u.

   Transition energy:     0.03024409  a.u.
   Transition energy:     0.82        eV

       Transition moment components:

                 x            y            z

electron         -0.324258    -0.060673    -0.020751  e*bohr
frozen core       0.000000     0.000000     0.000000  e*bohr
total (elec)     -0.324258    -0.060673    -0.020751  e*bohr


   Tr.dipole length:     0.330537    e*bohr
   Oscillator strength :  0.002203
   Einstein A coef.:     0.6474E+05  1/sec
   Einstein B coef.:     0.4434E+08  sec/g

                 x            y            z

<L> electron    -0.006845    -0.031436     0.118450  e*bohr


   <L> value length:     0.122741    e*bohr
 --------------------------------------------------- 
 Not computing transition moment with identical bra and ket.
 Calculating transition moment for (2,2) => (2,3)
 starting transci.x -m 200000 at Mon May  9 04:13:59 EDT 2022

 -------------------- transci.x ------------------------

                          State No. 1            State No. 2

   Space symmetry:           a                      a   
   No. of CSFs:          ********               ********
   State energies:      -285.92624832          -285.92020851  a.u.

   Transition energy:     0.00603981  a.u.
   Transition energy:     0.16        eV

       Transition moment components:

                 x            y            z

electron          0.185154     0.011496     0.097289  e*bohr
frozen core       0.000000     0.000000     0.000000  e*bohr
total (elec)      0.185154     0.011496     0.097289  e*bohr


   Tr.dipole length:     0.209474    e*bohr
   Oscillator strength :  0.000177
   Einstein A coef.:     0.2071E+03  1/sec
   Einstein B coef.:     0.1781E+08  sec/g

                 x            y            z

<L> electron     0.068260     0.285126     0.005020  e*bohr


   <L> value length:     0.293226    e*bohr
 --------------------------------------------------- 
  Calculating transition moment for (2,2) => (2,4)
 starting transci.x -m 200000 at Mon May  9 04:17:55 EDT 2022

 -------------------- transci.x ------------------------

                          State No. 1            State No. 2

   Space symmetry:           a                      a   
   No. of CSFs:          ********               ********
   State energies:      -285.92624832          -285.91709023  a.u.

   Transition energy:     0.00915809  a.u.
   Transition energy:     0.25        eV

       Transition moment components:

                 x            y            z

electron          0.196230     0.006188     0.045210  e*bohr
frozen core       0.000000     0.000000     0.000000  e*bohr
total (elec)      0.196230     0.006188     0.045210  e*bohr


   Tr.dipole length:     0.201466    e*bohr
   Oscillator strength :  0.000248
   Einstein A coef.:     0.6677E+03  1/sec
   Einstein B coef.:     0.1647E+08  sec/g

                 x            y            z

<L> electron     0.083963    -0.398068    -0.004695  e*bohr


   <L> value length:     0.406854    e*bohr
 --------------------------------------------------- 
 Not computing transition moment with identical bra and ket.
 Calculating transition moment for (2,3) => (2,4)
 starting transci.x -m 200000 at Mon May  9 04:21:53 EDT 2022

 -------------------- transci.x ------------------------

                          State No. 1            State No. 2

   Space symmetry:           a                      a   
   No. of CSFs:          ********               ********
   State energies:      -285.92020851          -285.91709023  a.u.

   Transition energy:     0.00311828  a.u.
   Transition energy:     0.08        eV

       Transition moment components:

                 x            y            z

electron         -1.931841    -0.038404    -0.012060  e*bohr
frozen core       0.000000     0.000000     0.000000  e*bohr
total (elec)     -1.931841    -0.038404    -0.012060  e*bohr


   Tr.dipole length:     1.932261    e*bohr
   Oscillator strength :  0.007762
   Einstein A coef.:     0.2425E+04  1/sec
   Einstein B coef.:     0.1515E+10  sec/g

                 x            y            z

<L> electron    -0.002232    -0.044802     0.078469  e*bohr


   <L> value length:     0.090386    e*bohr
 --------------------------------------------------- 
 Not computing transition moment with identical bra and ket.
starting mo_convert.x at Mon May  9 04:25:50 EDT 2022

 -------------------- mo_convert.x ------------------------
 --------------------------------------------------- 
 starting pymolcas molcas.input.molden > molcas.output.molden at Mon May  9 04:25:50 EDT 2022

Generating link ln -s ./molcas.OrdInt ORDINT 
 -------------------- molden ------------------------
 --------------------------------------------------- 
 starting mo_convert.x at Mon May  9 04:26:20 EDT 2022

 -------------------- mo_convert.x ------------------------
 --------------------------------------------------- 
 starting pymolcas molcas.input.molden > molcas.output.molden at Mon May  9 04:26:21 EDT 2022

Generating link ln -s ./molcas.OrdInt ORDINT 
 -------------------- molden ------------------------
 --------------------------------------------------- 
 starting mo_convert.x at Mon May  9 04:26:48 EDT 2022

 -------------------- mo_convert.x ------------------------
 --------------------------------------------------- 
 starting pymolcas molcas.input.molden > molcas.output.molden at Mon May  9 04:26:48 EDT 2022

Generating link ln -s ./molcas.OrdInt ORDINT 
 -------------------- molden ------------------------
 --------------------------------------------------- 
 starting mo_convert.x at Mon May  9 04:27:09 EDT 2022

 -------------------- mo_convert.x ------------------------
 --------------------------------------------------- 
 starting pymolcas molcas.input.molden > molcas.output.molden at Mon May  9 04:27:09 EDT 2022

Generating link ln -s ./molcas.OrdInt ORDINT 
 -------------------- molden ------------------------
 --------------------------------------------------- 
 starting mo_convert.x at Mon May  9 04:27:31 EDT 2022

 -------------------- mo_convert.x ------------------------
 --------------------------------------------------- 
 starting pymolcas molcas.input.molden > molcas.output.molden at Mon May  9 04:27:32 EDT 2022

Generating link ln -s ./molcas.OrdInt ORDINT 
 -------------------- molden ------------------------
 --------------------------------------------------- 
 starting mo_convert.x at Mon May  9 04:27:52 EDT 2022

 -------------------- mo_convert.x ------------------------
 --------------------------------------------------- 
 starting pymolcas molcas.input.molden > molcas.output.molden at Mon May  9 04:27:53 EDT 2022

Generating link ln -s ./molcas.OrdInt ORDINT 
 -------------------- molden ------------------------
 --------------------------------------------------- 
 

 +++++++++++ STARTING GRADIENTS AND NAD. COUPLINGS CALCULATION +++++++++++ 

 Using new transition density code ... 
INFO: this is a frozen core gradient calculation
starting cidrt.x  -m 200000 < cidrtin.cigrd > cidrtls.cigrd at Mon May  9 04:28:14 EDT 2022

 -------------------- cidrt.x ------------------------
 total number of orbitals            :   246
 number of frozen core orbitals      :    18
 number of frozen virtual orbitals   :     0
 number of internal orbitals         :    14
 number of external orbitals         :   214
 spatial symmetry:   a  
 
 total number of configurations  282461366
 number of reference configurations  1666
 --------------------------------------------------- 
 starting tran.x -m 200000  at Mon May  9 04:28:21 EDT 2022

 -------------------- tran.x ------------------------
 --------------------------------------------------- 
 ---- Computing 8 gradient(s)  ----

 --- Computing gradient for DRT:1, State; 1

starting cigrd.x -m 200000 at Mon May  9 04:36:33 EDT 2022


 *** Error occured! ***

end of transci
 numv1=                284669
 numv1=                284669
end of transci
end of cidrt
 prnopt=                     0
end of tran
 allocate: status=                     0
 bummer (fatal):rdhcid: from sifrh1, ierr=-1
bummer
