[Molden Format]
[Atoms] AU
  N     1    7    -0.0031692900   -0.0009972400   -4.3852485300        
  C     2    6    -0.0028437100   -0.0031605500   -1.7121109200        
  C     3    6     0.1196349500   -2.3131634800   -0.4180292800        
  C     4    6    -0.1250067000    2.3047448000   -0.4142623200        
  C     5    6     0.2125768200   -2.2803396800    2.1859063400        
  C     6    6    -0.2173142500    2.2677064200    2.1896393200        
  C     7    6    -0.0022112500   -0.0073629300    3.4806501200        
  H     8    1    -1.5903417000   -0.5589382900   -5.4070066000        
  H     9    1     1.5837542600    0.5585971500   -5.4064887800        
  H    10    1     0.2270400900   -4.0430284600   -1.4553561100        
  H    11    1    -0.2326641700    4.0362864600   -1.4487617300        
  H    12    1     0.4127893700   -4.0156822100    3.2105513200        
  H    13    1    -0.4172768400    4.0013882000    3.2171404400        
  H    14    1    -0.0019641400   -0.0090047500    5.5094040800        
[5D]
[7F]
[GTO]
  1  0
   s    12 1.00
  0.114200D+05  0.172695D-04
  0.171200D+04  0.134411D-03
  0.389300D+03  0.694561D-03
  0.110000D+03  0.278531D-02
  0.355700D+02  0.863457D-02
  0.125400D+02  0.199805D-01
  0.464400D+01  0.262908D-01
  0.129300D+01 -0.243845D-01
  0.511800D+00 -0.924934D-01
  0.178700D+00 -0.339683D+00
  0.246240D-01  0.345111D+00
  0.112530D-01  0.752750D+00
   s    10 1.00
  0.114200D+05  0.523000D-03
  0.171200D+04  0.404500D-02
  0.389300D+03  0.207750D-01
  0.110000D+03  0.807269D-01
  0.355700D+02  0.233074D+00
  0.125400D+02  0.433501D+00
  0.464400D+01  0.347472D+00
  0.129300D+01  0.412620D-01
  0.511800D+00 -0.850799D-02
  0.178700D+00  0.238400D-02
   s    10 1.00
  0.114200D+05 -0.115000D-03
  0.171200D+04 -0.895000D-03
  0.389300D+03 -0.462400D-02
  0.110000D+03 -0.185280D-01
  0.355700D+02 -0.573390D-01
  0.125400D+02 -0.132076D+00
  0.464400D+01 -0.172510D+00
  0.129300D+01  0.151814D+00
  0.511800D+00  0.599944D+00
  0.178700D+00  0.387462D+00
   s     1 1.00
  0.129300D+01  0.100000D+01
   s     1 1.00
  0.178700D+00  0.100000D+01
   p     5 1.00
  0.266300D+02  0.146700D-01
  0.594800D+01  0.917640D-01
  0.174200D+01  0.298683D+00
  0.555000D+00  0.498487D+00
  0.172500D+00  0.337023D+00
   p     1 1.00
  0.174200D+01  0.100000D+01
   p     1 1.00
  0.555000D+00  0.100000D+01
   d     1 1.00
  0.165400D+01  0.100000D+01
   d     1 1.00
  0.469000D+00  0.100000D+01
   f     1 1.00
  0.109300D+01  0.100000D+01
  
  2  0
   s    10 1.00
  0.823600D+04  0.531000D-03
  0.123500D+04  0.410800D-02
  0.280800D+03  0.210870D-01
  0.792700D+02  0.818530D-01
  0.255900D+02  0.234817D+00
  0.899700D+01  0.434401D+00
  0.331900D+01  0.346129D+00
  0.905900D+00  0.393780D-01
  0.364300D+00 -0.898300D-02
  0.128500D+00  0.238500D-02
   s    10 1.00
  0.823600D+04 -0.113000D-03
  0.123500D+04 -0.878000D-03
  0.280800D+03 -0.454000D-02
  0.792700D+02 -0.181330D-01
  0.255900D+02 -0.557600D-01
  0.899700D+01 -0.126895D+00
  0.331900D+01 -0.170352D+00
  0.905900D+00  0.140382D+00
  0.364300D+00  0.598684D+00
  0.128500D+00  0.395389D+00
   s     1 1.00
  0.905900D+00  0.100000D+01
   s     1 1.00
  0.364300D+00  0.100000D+01
   p     5 1.00
  0.187100D+02  0.140310D-01
  0.413300D+01  0.868660D-01
  0.120000D+01  0.290216D+00
  0.382700D+00  0.501008D+00
  0.120900D+00  0.343406D+00
   p     1 1.00
  0.382700D+00  0.100000D+01
   p     1 1.00
  0.120900D+00  0.100000D+01
   d     1 1.00
  0.109700D+01  0.100000D+01
   d     1 1.00
  0.318000D+00  0.100000D+01
   f     1 1.00
  0.761000D+00  0.100000D+01
  
  3  0
   s    10 1.00
  0.823600D+04  0.531000D-03
  0.123500D+04  0.410800D-02
  0.280800D+03  0.210870D-01
  0.792700D+02  0.818530D-01
  0.255900D+02  0.234817D+00
  0.899700D+01  0.434401D+00
  0.331900D+01  0.346129D+00
  0.905900D+00  0.393780D-01
  0.364300D+00 -0.898300D-02
  0.128500D+00  0.238500D-02
   s    10 1.00
  0.823600D+04 -0.113000D-03
  0.123500D+04 -0.878000D-03
  0.280800D+03 -0.454000D-02
  0.792700D+02 -0.181330D-01
  0.255900D+02 -0.557600D-01
  0.899700D+01 -0.126895D+00
  0.331900D+01 -0.170352D+00
  0.905900D+00  0.140382D+00
  0.364300D+00  0.598684D+00
  0.128500D+00  0.395389D+00
   s     1 1.00
  0.905900D+00  0.100000D+01
   s     1 1.00
  0.364300D+00  0.100000D+01
   p     5 1.00
  0.187100D+02  0.140310D-01
  0.413300D+01  0.868660D-01
  0.120000D+01  0.290216D+00
  0.382700D+00  0.501008D+00
  0.120900D+00  0.343406D+00
   p     1 1.00
  0.382700D+00  0.100000D+01
   p     1 1.00
  0.120900D+00  0.100000D+01
   d     1 1.00
  0.109700D+01  0.100000D+01
   d     1 1.00
  0.318000D+00  0.100000D+01
   f     1 1.00
  0.761000D+00  0.100000D+01
  
  4  0
   s    10 1.00
  0.823600D+04  0.531000D-03
  0.123500D+04  0.410800D-02
  0.280800D+03  0.210870D-01
  0.792700D+02  0.818530D-01
  0.255900D+02  0.234817D+00
  0.899700D+01  0.434401D+00
  0.331900D+01  0.346129D+00
  0.905900D+00  0.393780D-01
  0.364300D+00 -0.898300D-02
  0.128500D+00  0.238500D-02
   s    10 1.00
  0.823600D+04 -0.113000D-03
  0.123500D+04 -0.878000D-03
  0.280800D+03 -0.454000D-02
  0.792700D+02 -0.181330D-01
  0.255900D+02 -0.557600D-01
  0.899700D+01 -0.126895D+00
  0.331900D+01 -0.170352D+00
  0.905900D+00  0.140382D+00
  0.364300D+00  0.598684D+00
  0.128500D+00  0.395389D+00
   s     1 1.00
  0.905900D+00  0.100000D+01
   s     1 1.00
  0.364300D+00  0.100000D+01
   p     5 1.00
  0.187100D+02  0.140310D-01
  0.413300D+01  0.868660D-01
  0.120000D+01  0.290216D+00
  0.382700D+00  0.501008D+00
  0.120900D+00  0.343406D+00
   p     1 1.00
  0.382700D+00  0.100000D+01
   p     1 1.00
  0.120900D+00  0.100000D+01
   d     1 1.00
  0.109700D+01  0.100000D+01
   d     1 1.00
  0.318000D+00  0.100000D+01
   f     1 1.00
  0.761000D+00  0.100000D+01
  
  5  0
   s    10 1.00
  0.823600D+04  0.531000D-03
  0.123500D+04  0.410800D-02
  0.280800D+03  0.210870D-01
  0.792700D+02  0.818530D-01
  0.255900D+02  0.234817D+00
  0.899700D+01  0.434401D+00
  0.331900D+01  0.346129D+00
  0.905900D+00  0.393780D-01
  0.364300D+00 -0.898300D-02
  0.128500D+00  0.238500D-02
   s    10 1.00
  0.823600D+04 -0.113000D-03
  0.123500D+04 -0.878000D-03
  0.280800D+03 -0.454000D-02
  0.792700D+02 -0.181330D-01
  0.255900D+02 -0.557600D-01
  0.899700D+01 -0.126895D+00
  0.331900D+01 -0.170352D+00
  0.905900D+00  0.140382D+00
  0.364300D+00  0.598684D+00
  0.128500D+00  0.395389D+00
   s     1 1.00
  0.905900D+00  0.100000D+01
   s     1 1.00
  0.364300D+00  0.100000D+01
   p     5 1.00
  0.187100D+02  0.140310D-01
  0.413300D+01  0.868660D-01
  0.120000D+01  0.290216D+00
  0.382700D+00  0.501008D+00
  0.120900D+00  0.343406D+00
   p     1 1.00
  0.382700D+00  0.100000D+01
   p     1 1.00
  0.120900D+00  0.100000D+01
   d     1 1.00
  0.109700D+01  0.100000D+01
   d     1 1.00
  0.318000D+00  0.100000D+01
   f     1 1.00
  0.761000D+00  0.100000D+01
  
  6  0
   s    10 1.00
  0.823600D+04  0.531000D-03
  0.123500D+04  0.410800D-02
  0.280800D+03  0.210870D-01
  0.792700D+02  0.818530D-01
  0.255900D+02  0.234817D+00
  0.899700D+01  0.434401D+00
  0.331900D+01  0.346129D+00
  0.905900D+00  0.393780D-01
  0.364300D+00 -0.898300D-02
  0.128500D+00  0.238500D-02
   s    10 1.00
  0.823600D+04 -0.113000D-03
  0.123500D+04 -0.878000D-03
  0.280800D+03 -0.454000D-02
  0.792700D+02 -0.181330D-01
  0.255900D+02 -0.557600D-01
  0.899700D+01 -0.126895D+00
  0.331900D+01 -0.170352D+00
  0.905900D+00  0.140382D+00
  0.364300D+00  0.598684D+00
  0.128500D+00  0.395389D+00
   s     1 1.00
  0.905900D+00  0.100000D+01
   s     1 1.00
  0.364300D+00  0.100000D+01
   p     5 1.00
  0.187100D+02  0.140310D-01
  0.413300D+01  0.868660D-01
  0.120000D+01  0.290216D+00
  0.382700D+00  0.501008D+00
  0.120900D+00  0.343406D+00
   p     1 1.00
  0.382700D+00  0.100000D+01
   p     1 1.00
  0.120900D+00  0.100000D+01
   d     1 1.00
  0.109700D+01  0.100000D+01
   d     1 1.00
  0.318000D+00  0.100000D+01
   f     1 1.00
  0.761000D+00  0.100000D+01
  
  7  0
   s    10 1.00
  0.823600D+04  0.531000D-03
  0.123500D+04  0.410800D-02
  0.280800D+03  0.210870D-01
  0.792700D+02  0.818530D-01
  0.255900D+02  0.234817D+00
  0.899700D+01  0.434401D+00
  0.331900D+01  0.346129D+00
  0.905900D+00  0.393780D-01
  0.364300D+00 -0.898300D-02
  0.128500D+00  0.238500D-02
   s    10 1.00
  0.823600D+04 -0.113000D-03
  0.123500D+04 -0.878000D-03
  0.280800D+03 -0.454000D-02
  0.792700D+02 -0.181330D-01
  0.255900D+02 -0.557600D-01
  0.899700D+01 -0.126895D+00
  0.331900D+01 -0.170352D+00
  0.905900D+00  0.140382D+00
  0.364300D+00  0.598684D+00
  0.128500D+00  0.395389D+00
   s     1 1.00
  0.905900D+00  0.100000D+01
   s     1 1.00
  0.364300D+00  0.100000D+01
   p     5 1.00
  0.187100D+02  0.140310D-01
  0.413300D+01  0.868660D-01
  0.120000D+01  0.290216D+00
  0.382700D+00  0.501008D+00
  0.120900D+00  0.343406D+00
   p     1 1.00
  0.382700D+00  0.100000D+01
   p     1 1.00
  0.120900D+00  0.100000D+01
   d     1 1.00
  0.109700D+01  0.100000D+01
   d     1 1.00
  0.318000D+00  0.100000D+01
   f     1 1.00
  0.761000D+00  0.100000D+01
  
  8  0
   s     4 1.00
  0.130100D+02  0.196850D-01
  0.196200D+01  0.137977D+00
  0.444600D+00  0.478148D+00
  0.122000D+00  0.501240D+00
   s     1 1.00
  0.122000D+00  0.100000D+01
   p     1 1.00
  0.727000D+00  0.100000D+01
  
  9  0
   s     4 1.00
  0.130100D+02  0.196850D-01
  0.196200D+01  0.137977D+00
  0.444600D+00  0.478148D+00
  0.122000D+00  0.501240D+00
   s     1 1.00
  0.122000D+00  0.100000D+01
   p     1 1.00
  0.727000D+00  0.100000D+01
  
 10  0
   s     4 1.00
  0.130100D+02  0.196850D-01
  0.196200D+01  0.137977D+00
  0.444600D+00  0.478148D+00
  0.122000D+00  0.501240D+00
   s     1 1.00
  0.122000D+00  0.100000D+01
   p     1 1.00
  0.727000D+00  0.100000D+01
  
 11  0
   s     4 1.00
  0.130100D+02  0.196850D-01
  0.196200D+01  0.137977D+00
  0.444600D+00  0.478148D+00
  0.122000D+00  0.501240D+00
   s     1 1.00
  0.122000D+00  0.100000D+01
   p     1 1.00
  0.727000D+00  0.100000D+01
  
 12  0
   s     4 1.00
  0.130100D+02  0.196850D-01
  0.196200D+01  0.137977D+00
  0.444600D+00  0.478148D+00
  0.122000D+00  0.501240D+00
   s     1 1.00
  0.122000D+00  0.100000D+01
   p     1 1.00
  0.727000D+00  0.100000D+01
  
 13  0
   s     4 1.00
  0.130100D+02  0.196850D-01
  0.196200D+01  0.137977D+00
  0.444600D+00  0.478148D+00
  0.122000D+00  0.501240D+00
   s     1 1.00
  0.122000D+00  0.100000D+01
   p     1 1.00
  0.727000D+00  0.100000D+01
  
 14  0
   s     4 1.00
  0.130100D+02  0.196850D-01
  0.196200D+01  0.137977D+00
  0.444600D+00  0.478148D+00
  0.122000D+00  0.501240D+00
   s     1 1.00
  0.122000D+00  0.100000D+01
   p     1 1.00
  0.727000D+00  0.100000D+01
  
[MO]
 Sym= __1_a__
 Ene=  0.000000000000000E+000
 Spin= Alpha
 Occup=    2.00000000000000     
                     1  6.219819026416460E-005
                     2  0.997780220359814     
                     3  1.179432007430440E-002
                     4  2.162248535019360E-003
                     5  1.070460217038830E-003
                     6  3.723507153191440E-007
                     7 -2.443321276724920E-006
                     8  3.003148807396430E-003
                     9 -4.038689952738070E-008
                    10  2.551052176358440E-007
                    11 -3.036110347013670E-004
                    12 -8.454734102742710E-008
                    13  5.247090914210880E-007
                    14 -6.782038760573950E-004
                    15  1.174783927354070E-004
                    16  6.803759155284430E-008
                    17 -2.167095335544430E-007
                    18  5.539681957650760E-005
                    19  6.092241421677570E-005
                    20 -1.882744578316473E-005
                    21 -2.167321154097790E-007
                    22  3.718423596064850E-007
                    23 -4.012685844386640E-004
                    24 -3.177726612368570E-004
                    25 -1.453915006771445E-004
                    26 -9.365512567905198E-009
                    27 -2.384386118625048E-007
                    28 -3.292850399242360E-005
                    29 -4.564687780041410E-005
                    30  5.016379186473950E-008
                    31  2.557473908937687E-008
                    32 -1.437929053399480E-004
                    33  2.516496946716390E-003
                    34  4.880057976393090E-005
                    35 -5.545125110756540E-004
                    36 -7.360572970255050E-007
                    37  4.876439925187500E-006
                    38 -6.004961771678500E-003
                    39 -4.329578209136860E-008
                    40  3.128160346991420E-007
                    41 -4.480027851747860E-004
                    42  4.097376338481450E-007
                    43 -2.745227658441720E-006
                    44  3.447981463158950E-003
                    45  3.723498633755635E-004
                    46  6.506757568135460E-008
                    47 -5.872178232499710E-007
                    48  9.154710690010380E-005
                    49 -3.607211261091560E-006
                    50  7.839193323698314E-004
                    51  2.060238166107210E-007
                    52 -1.353077833336320E-006
                    53  1.504164341812116E-004
                    54  7.283203709388869E-005
                    55 -2.670495688909010E-005
                    56 -8.602711125111663E-009
                    57 -1.144658360887527E-007
                    58  4.582788513958480E-005
                    59 -6.611031203085610E-006
                    60 -3.588859622211230E-010
                    61 -4.981325730453169E-008
                    62 -1.732120350883260E-004
                    63 -1.588684507662150E-003
                    64 -1.452019097639220E-005
                    65  8.273659261363920E-004
                    66  4.353940787508880E-005
                    67 -8.333493254868970E-004
                    68  1.158804749130000E-003
                    69  2.816788187254880E-005
                    70  1.488693115974190E-004
                    71  4.540585815172480E-005
                    72  3.961479793129720E-005
                    73 -5.418128579228750E-004
                    74 -3.470674415196880E-004
                    75  8.758789586191059E-005
                    76  2.811530179237460E-006
                    77 -1.381250763573270E-005
                    78  2.842057126712480E-005
                    79  2.180431062564460E-006
                    80  3.127240701156691E-005
                    81 -5.610982702288950E-006
                    82 -5.874115538281310E-005
                    83  1.124126975764750E-005
                    84  1.983770689635820E-005
                    85 -7.056122780180435E-005
                    86  5.632781128873078E-006
                    87 -5.644123301328007E-006
                    88  2.086870397483180E-005
                    89 -2.231935327006830E-006
                    90  3.421465774535758E-006
                    91  2.037793830968367E-005
                    92 -1.731806928749140E-004
                    93 -1.588559179945310E-003
                    94 -1.437973820375310E-005
                    95  8.269388801166680E-004
                    96 -4.326086754255050E-005
                    97  8.314898428270231E-004
                    98  1.160258090623430E-003
                    99 -2.813178626657700E-005
                   100 -1.490702660342640E-004
                   101  4.465522674750680E-005
                   102 -3.965905983001850E-005
                   103  5.418730650240050E-004
                   104 -3.460244676603580E-004
                   105  8.760101019976692E-005
                   106 -2.777067791235950E-006
                   107  1.353531258992610E-005
                   108  2.844322460302320E-005
                   109  2.187477633488600E-006
                   110  3.104935438378011E-005
                   111  5.676850323133850E-006
                   112  5.853061206904680E-005
                   113  1.126123059676786E-005
                   114  1.983981040671690E-005
                   115 -7.052578435685112E-005
                   116 -5.600394603877259E-006
                   117  5.316294835745425E-006
                   118  2.083469365964020E-005
                   119 -2.217513234140030E-006
                   120 -3.423645624277677E-006
                   121 -2.041859866769398E-005
                   122 -1.470967603710400E-004
                   123  2.313966877953490E-005
                   124  6.418741876566280E-005
                   125  3.006970343432880E-004
                   126 -6.682346265734309E-005
                   127  4.973241320875470E-005
                   128 -8.206653510472340E-004
                   129 -5.703883529816060E-006
                   130  3.243177138307810E-005
                   131  1.716311970389900E-004
                   132  1.539245120822750E-005
                   133 -4.777081245018190E-005
                   134  5.034603472920020E-004
                   135  1.552910003107369E-006
                   136  9.234043500572040E-007
                   137  4.800993241520050E-006
                   138 -3.692256930348600E-006
                   139  8.526980171228330E-007
                   140 -1.078113289371721E-004
                   141 -1.115618436120610E-005
                   142  8.521117341682130E-005
                   143  4.319174294360380E-005
                   144 -1.781259935068660E-006
                   145 -2.113277864739148E-005
                   146  3.104613719839707E-007
                   147 -4.698056265077136E-006
                   148 -9.028383511047059E-006
                   149 -1.274849092574950E-006
                   150 -1.085252004717949E-006
                   151 -2.195746921778058E-006
                   152 -1.475137849554220E-004
                   153  2.165570872820260E-005
                   154  6.373865158420770E-005
                   155  3.034367488023030E-004
                   156  6.661125104628749E-005
                   157 -4.834670880260930E-005
                   158 -8.207382999745160E-004
                   159  5.808678071826870E-006
                   160 -3.308614262430560E-005
                   161  1.713207855729000E-004
                   162 -1.532316495918230E-005
                   163  4.741611371310610E-005
                   164  5.037095717370980E-004
                   165  1.585568188149127E-006
                   166 -9.232930071293620E-007
                   167 -4.809130412565890E-006
                   168 -3.748175736005600E-006
                   169  8.425511473861049E-007
                   170 -1.079602449791060E-004
                   171  1.110722228912410E-005
                   172 -8.522401658296140E-005
                   173  4.299827888672180E-005
                   174 -1.825239778817710E-006
                   175 -2.107286873718579E-005
                   176 -2.926618733183106E-007
                   177  4.641727437693503E-006
                   178 -9.060766237119399E-006
                   179 -1.280766135081110E-006
                   180  1.092314217788148E-006
                   181  2.223052600895240E-006
                   182 -1.167774815044920E-004
                   183 -3.199593472662630E-004
                   184  2.336847152106410E-005
                   185  2.311170759972560E-004
                   186 -1.499761835243670E-008
                   187  1.132869240069550E-007
                   188 -3.621175647930010E-005
                   189  4.707841860703660E-008
                   190 -4.468443463863640E-007
                   191  6.198538217810240E-006
                   192  1.577242812819740E-009
                   193 -1.208552767759220E-008
                   194 -5.355728724859010E-005
                   195  2.239373754945972E-005
                   196  3.082105514352400E-009
                   197 -1.390629540187100E-008
                   198  7.321964471876680E-006
                   199  2.359871626415430E-006
                   200  2.138669665294710E-005
                   201 -1.533676625839360E-008
                   202  1.625661158806220E-007
                   203  2.759016698761500E-005
                   204  2.914754262091330E-006
                   205 -8.219579861952063E-006
                   206  4.772199838692595E-009
                   207 -2.248312226840116E-008
                   208 -3.266486326511740E-007
                   209  1.106597547023400E-006
                   210  6.188088673735947E-009
                   211  2.644442644527635E-008
                   212  5.768115090088790E-003
                   213 -3.174346051794480E-003
                   214  5.883029799367500E-004
                   215  2.003559861330090E-004
                   216  4.087621417240410E-004
                   217  5.768095775089840E-003
                   218 -3.174338134910020E-003
                   219 -5.882009609524160E-004
                   220 -2.010196380752260E-004
                   221  4.085798095170820E-004
                   222 -6.323867703247060E-004
                   223 -1.932513637895710E-004
                   224  4.183249051107900E-006
                   225 -3.797235310217760E-005
                   226 -4.570605851317240E-005
                   227 -6.324433581844890E-004
                   228 -1.929211679063010E-004
                   229 -4.194088848834330E-006
                   230  3.803003545352190E-005
                   231 -4.566581221152910E-005
                   232 -2.526474490043020E-004
                   233 -2.086960003008220E-004
                   234 -1.964377762442600E-006
                   235 -1.419480659051530E-005
                   236 -4.003653074701370E-006
                   237 -2.526862177383510E-004
                   238 -2.088282846799000E-004
                   239  1.958286084430990E-006
                   240  1.424195584662010E-005
                   241 -3.935431836453110E-006
                   242  1.215382820655090E-004
                   243 -1.215592142963570E-005
                   244  2.521077490317690E-009
                   245 -3.056406307205880E-008
                   246  1.117784097145810E-005
 Sym= __2_a__
 Ene=  0.000000000000000E+000
 Spin= Alpha
 Occup=    2.00000000000000     
                     1 -9.051947097049590E-006
                     2 -4.636035264509940E-005
                     3  1.789986420812570E-003
                     4 -1.356757510305580E-006
                     5  1.056983497266910E-003
                     6  2.201488432968800E-007
                     7 -1.499363402045350E-006
                     8  1.855798105635640E-003
                     9 -1.386288095032320E-008
                    10  1.057785914733380E-007
                    11 -1.332134073962580E-004
                    12  1.338691569338920E-008
                    13 -6.830427005453151E-008
                    14  8.884607322873740E-005
                    15  6.664711372190697E-005
                    16  2.014001085795230E-009
                    17 -9.931337751006590E-008
                    18  9.850458623392841E-006
                    19 -1.294179099399070E-005
                    20 -2.357997986533313E-005
                    21  3.983335618958290E-008
                    22  6.006028968404759E-008
                    23 -3.968063760688160E-005
                    24  4.665292685773900E-005
                    25  1.846760538570699E-004
                    26 -6.503049639571378E-008
                    27  4.351273112702682E-007
                    28 -5.304758243013320E-005
                    29 -1.673341462948480E-005
                    30  2.468743060840047E-008
                    31  5.045353893190359E-008
                    32   1.00096593587463     
                    33  8.870150770223901E-003
                    34  2.689307012121730E-003
                    35 -8.212388057939911E-003
                    36 -3.530038433364330E-007
                    37  2.336608127860750E-006
                    38 -2.894507702395990E-003
                    39  1.743363382627430E-007
                    40 -1.163048335582190E-006
                    41  1.443643861705630E-003
                    42  4.215382110182150E-007
                    43 -2.814660023719340E-006
                    44  3.400014698773910E-003
                    45  1.947596916624870E-004
                    46  7.255735847677760E-008
                    47  6.213999896308821E-008
                    48 -4.140339698533620E-004
                    49 -2.311397087180160E-005
                    50  4.746489081256049E-004
                    51  4.837795281854210E-008
                    52 -1.442074355989970E-006
                    53  9.666218500182540E-004
                    54  7.927349011626430E-005
                    55  2.553584814015067E-004
                    56 -4.920723055972754E-008
                    57  7.390879573760429E-007
                    58 -1.800140235288476E-004
                    59 -5.532534628923140E-006
                    60  3.256863165853380E-008
                    61  1.793572802644464E-007
                    62  1.491048950388260E-002
                    63 -1.750865130457690E-003
                    64 -2.963701413677020E-004
                    65  3.049453501892420E-003
                    66 -1.109255656251990E-005
                    67  2.957755641698110E-004
                    68 -1.254034188135710E-004
                    69 -1.909555312147350E-005
                    70  4.680530351682580E-004
                    71 -1.237388124771500E-005
                    72  1.269237846595690E-004
                    73 -1.857738451767460E-003
                    74  1.241853983816030E-004
                    75 -2.830632396953848E-005
                    76  1.186516691506830E-006
                    77  2.709713571415860E-005
                    78  1.980771822092694E-005
                    79  1.294266008123500E-006
                    80  8.689217825355823E-004
                    81  5.231237519300030E-005
                    82 -5.601042761369730E-004
                    83  1.873986140415454E-005
                    84 -1.050552431254750E-005
                    85  3.869074124601978E-005
                    86  2.196197016869988E-006
                    87  3.452064532663101E-005
                    88 -9.303110934320560E-005
                    89 -5.786394861728520E-006
                    90  8.386570415930643E-006
                    91  5.912651122696875E-005
                    92  1.491046615316990E-002
                    93 -1.750938266125570E-003
                    94 -2.964147700989430E-004
                    95  3.049638023384960E-003
                    96  1.106267675180900E-005
                    97 -2.955738989969740E-004
                    98 -1.259108522193530E-004
                    99  1.908658844256330E-005
                   100 -4.680233896398660E-004
                   101 -1.299819277928070E-005
                   102 -1.269049858729610E-004
                   103  1.857676957035860E-003
                   104  1.270818571114310E-004
                   105 -2.836882038615158E-005
                   106 -1.201667477755560E-006
                   107 -2.705589176841800E-005
                   108  1.976233111371152E-005
                   109  1.289921879329460E-006
                   110  8.705897895876231E-004
                   111 -5.197340219690920E-005
                   112  5.576835384070680E-004
                   113  1.965293489392256E-005
                   114 -1.028373047646730E-005
                   115  3.880957947802449E-005
                   116 -2.199385212766886E-006
                   117 -3.412605406827061E-005
                   118 -9.323709895497840E-005
                   119 -5.792496578989160E-006
                   120 -8.347042446971204E-006
                   121 -5.894316553838019E-005
                   122 -8.103413492530450E-005
                   123 -7.593112551519150E-004
                   124  2.357303089862370E-004
                   125 -2.548236818207120E-004
                   126 -8.032241143119880E-006
                   127 -6.292152369838890E-005
                   128 -1.644815653160220E-004
                   129  2.684956317960080E-005
                   130  9.705715452014450E-005
                   131  5.544071428449490E-004
                   132 -2.274468868717000E-005
                   133  3.687517343376060E-004
                   134  5.632528558057210E-004
                   135 -2.668449174552530E-005
                   136 -5.343749493135530E-006
                   137  4.985263206666990E-005
                   138  1.690716398697378E-005
                   139  6.933312041581100E-006
                   140 -3.207194904329283E-004
                   141 -6.138686949175570E-006
                   142 -3.341842983839710E-004
                   143 -3.942735474358180E-005
                   144 -3.988752165957560E-005
                   145 -1.096193891875659E-005
                   146  6.427076593726249E-006
                   147 -1.607827790818183E-005
                   148 -1.752269961227658E-005
                   149 -4.399705674697110E-006
                   150 -1.062133849747973E-006
                   151 -8.831444624880656E-006
                   152 -8.076352582076531E-005
                   153 -7.584168859731370E-004
                   154  2.358214094353770E-004
                   155 -2.558762898976830E-004
                   156  7.994669346344061E-006
                   157  6.317348971132349E-005
                   158 -1.643848087818090E-004
                   159 -2.672870772602140E-005
                   160 -9.787453170423200E-005