[Molden Format]
[Atoms] AU
  N     1    7    -0.0031692900   -0.0009972400   -4.3852485300        
  C     2    6    -0.0028437100   -0.0031605500   -1.7121109200        
  C     3    6     0.1196349500   -2.3131634800   -0.4180292800        
  C     4    6    -0.1250067000    2.3047448000   -0.4142623200        
  C     5    6     0.2125768200   -2.2803396800    2.1859063400        
  C     6    6    -0.2173142500    2.2677064200    2.1896393200        
  C     7    6    -0.0022112500   -0.0073629300    3.4806501200        
  H     8    1    -1.5903417000   -0.5589382900   -5.4070066000        
  H     9    1     1.5837542600    0.5585971500   -5.4064887800        
  H    10    1     0.2270400900   -4.0430284600   -1.4553561100        
  H    11    1    -0.2326641700    4.0362864600   -1.4487617300        
  H    12    1     0.4127893700   -4.0156822100    3.2105513200        
  H    13    1    -0.4172768400    4.0013882000    3.2171404400        
  H    14    1    -0.0019641400   -0.0090047500    5.5094040800        
[5D]
[7F]
[GTO]
  1  0
   s    12 1.00
  0.114200D+05  0.172695D-04
  0.171200D+04  0.134411D-03
  0.389300D+03  0.694561D-03
  0.110000D+03  0.278531D-02
  0.355700D+02  0.863457D-02
  0.125400D+02  0.199805D-01
  0.464400D+01  0.262908D-01
  0.129300D+01 -0.243845D-01
  0.511800D+00 -0.924934D-01
  0.178700D+00 -0.339683D+00
  0.246240D-01  0.345111D+00
  0.112530D-01  0.752750D+00
   s    10 1.00
  0.114200D+05  0.523000D-03
  0.171200D+04  0.404500D-02
  0.389300D+03  0.207750D-01
  0.110000D+03  0.807269D-01
  0.355700D+02  0.233074D+00
  0.125400D+02  0.433501D+00
  0.464400D+01  0.347472D+00
  0.129300D+01  0.412620D-01
  0.511800D+00 -0.850799D-02
  0.178700D+00  0.238400D-02
   s    10 1.00
  0.114200D+05 -0.115000D-03
  0.171200D+04 -0.895000D-03
  0.389300D+03 -0.462400D-02
  0.110000D+03 -0.185280D-01
  0.355700D+02 -0.573390D-01
  0.125400D+02 -0.132076D+00
  0.464400D+01 -0.172510D+00
  0.129300D+01  0.151814D+00
  0.511800D+00  0.599944D+00
  0.178700D+00  0.387462D+00
   s     1 1.00
  0.129300D+01  0.100000D+01
   s     1 1.00
  0.178700D+00  0.100000D+01
   p     5 1.00
  0.266300D+02  0.146700D-01
  0.594800D+01  0.917640D-01
  0.174200D+01  0.298683D+00
  0.555000D+00  0.498487D+00
  0.172500D+00  0.337023D+00
   p     1 1.00
  0.174200D+01  0.100000D+01
   p     1 1.00
  0.555000D+00  0.100000D+01
   d     1 1.00
  0.165400D+01  0.100000D+01
   d     1 1.00
  0.469000D+00  0.100000D+01
   f     1 1.00
  0.109300D+01  0.100000D+01
  
  2  0
   s    10 1.00
  0.823600D+04  0.531000D-03
  0.123500D+04  0.410800D-02
  0.280800D+03  0.210870D-01
  0.792700D+02  0.818530D-01
  0.255900D+02  0.234817D+00
  0.899700D+01  0.434401D+00
  0.331900D+01  0.346129D+00
  0.905900D+00  0.393780D-01
  0.364300D+00 -0.898300D-02
  0.128500D+00  0.238500D-02
   s    10 1.00
  0.823600D+04 -0.113000D-03
  0.123500D+04 -0.878000D-03
  0.280800D+03 -0.454000D-02
  0.792700D+02 -0.181330D-01
  0.255900D+02 -0.557600D-01
  0.899700D+01 -0.126895D+00
  0.331900D+01 -0.170352D+00
  0.905900D+00  0.140382D+00
  0.364300D+00  0.598684D+00
  0.128500D+00  0.395389D+00
   s     1 1.00
  0.905900D+00  0.100000D+01
   s     1 1.00
  0.364300D+00  0.100000D+01
   p     5 1.00
  0.187100D+02  0.140310D-01
  0.413300D+01  0.868660D-01
  0.120000D+01  0.290216D+00
  0.382700D+00  0.501008D+00
  0.120900D+00  0.343406D+00
   p     1 1.00
  0.382700D+00  0.100000D+01
   p     1 1.00
  0.120900D+00  0.100000D+01
   d     1 1.00
  0.109700D+01  0.100000D+01
   d     1 1.00
  0.318000D+00  0.100000D+01
   f     1 1.00
  0.761000D+00  0.100000D+01
  
  3  0
   s    10 1.00
  0.823600D+04  0.531000D-03
  0.123500D+04  0.410800D-02
  0.280800D+03  0.210870D-01
  0.792700D+02  0.818530D-01
  0.255900D+02  0.234817D+00
  0.899700D+01  0.434401D+00
  0.331900D+01  0.346129D+00
  0.905900D+00  0.393780D-01
  0.364300D+00 -0.898300D-02
  0.128500D+00  0.238500D-02
   s    10 1.00
  0.823600D+04 -0.113000D-03
  0.123500D+04 -0.878000D-03
  0.280800D+03 -0.454000D-02
  0.792700D+02 -0.181330D-01
  0.255900D+02 -0.557600D-01
  0.899700D+01 -0.126895D+00
  0.331900D+01 -0.170352D+00
  0.905900D+00  0.140382D+00
  0.364300D+00  0.598684D+00
  0.128500D+00  0.395389D+00
   s     1 1.00
  0.905900D+00  0.100000D+01
   s     1 1.00
  0.364300D+00  0.100000D+01
   p     5 1.00
  0.187100D+02  0.140310D-01
  0.413300D+01  0.868660D-01
  0.120000D+01  0.290216D+00
  0.382700D+00  0.501008D+00
  0.120900D+00  0.343406D+00
   p     1 1.00
  0.382700D+00  0.100000D+01
   p     1 1.00
  0.120900D+00  0.100000D+01
   d     1 1.00
  0.109700D+01  0.100000D+01
   d     1 1.00
  0.318000D+00  0.100000D+01
   f     1 1.00
  0.761000D+00  0.100000D+01
  
  4  0
   s    10 1.00
  0.823600D+04  0.531000D-03
  0.123500D+04  0.410800D-02
  0.280800D+03  0.210870D-01
  0.792700D+02  0.818530D-01
  0.255900D+02  0.234817D+00
  0.899700D+01  0.434401D+00
  0.331900D+01  0.346129D+00
  0.905900D+00  0.393780D-01
  0.364300D+00 -0.898300D-02
  0.128500D+00  0.238500D-02
   s    10 1.00
  0.823600D+04 -0.113000D-03
  0.123500D+04 -0.878000D-03
  0.280800D+03 -0.454000D-02
  0.792700D+02 -0.181330D-01
  0.255900D+02 -0.557600D-01
  0.899700D+01 -0.126895D+00
  0.331900D+01 -0.170352D+00
  0.905900D+00  0.140382D+00
  0.364300D+00  0.598684D+00
  0.128500D+00  0.395389D+00
   s     1 1.00
  0.905900D+00  0.100000D+01
   s     1 1.00
  0.364300D+00  0.100000D+01
   p     5 1.00
  0.187100D+02  0.140310D-01
  0.413300D+01  0.868660D-01
  0.120000D+01  0.290216D+00
  0.382700D+00  0.501008D+00
  0.120900D+00  0.343406D+00
   p     1 1.00
  0.382700D+00  0.100000D+01
   p     1 1.00
  0.120900D+00  0.100000D+01
   d     1 1.00
  0.109700D+01  0.100000D+01
   d     1 1.00
  0.318000D+00  0.100000D+01
   f     1 1.00
  0.761000D+00  0.100000D+01
  
  5  0
   s    10 1.00
  0.823600D+04  0.531000D-03
  0.123500D+04  0.410800D-02
  0.280800D+03  0.210870D-01
  0.792700D+02  0.818530D-01
  0.255900D+02  0.234817D+00
  0.899700D+01  0.434401D+00
  0.331900D+01  0.346129D+00
  0.905900D+00  0.393780D-01
  0.364300D+00 -0.898300D-02
  0.128500D+00  0.238500D-02
   s    10 1.00
  0.823600D+04 -0.113000D-03
  0.123500D+04 -0.878000D-03
  0.280800D+03 -0.454000D-02
  0.792700D+02 -0.181330D-01
  0.255900D+02 -0.557600D-01
  0.899700D+01 -0.126895D+00
  0.331900D+01 -0.170352D+00
  0.905900D+00  0.140382D+00
  0.364300D+00  0.598684D+00
  0.128500D+00  0.395389D+00
   s     1 1.00
  0.905900D+00  0.100000D+01
   s     1 1.00
  0.364300D+00  0.100000D+01
   p     5 1.00
  0.187100D+02  0.140310D-01
  0.413300D+01  0.868660D-01
  0.120000D+01  0.290216D+00
  0.382700D+00  0.501008D+00
  0.120900D+00  0.343406D+00
   p     1 1.00
  0.382700D+00  0.100000D+01
   p     1 1.00
  0.120900D+00  0.100000D+01
   d     1 1.00
  0.109700D+01  0.100000D+01
   d     1 1.00
  0.318000D+00  0.100000D+01
   f     1 1.00
  0.761000D+00  0.100000D+01
  
  6  0
   s    10 1.00
  0.823600D+04  0.531000D-03
  0.123500D+04  0.410800D-02
  0.280800D+03  0.210870D-01
  0.792700D+02  0.818530D-01
  0.255900D+02  0.234817D+00
  0.899700D+01  0.434401D+00
  0.331900D+01  0.346129D+00
  0.905900D+00  0.393780D-01
  0.364300D+00 -0.898300D-02
  0.128500D+00  0.238500D-02
   s    10 1.00
  0.823600D+04 -0.113000D-03
  0.123500D+04 -0.878000D-03
  0.280800D+03 -0.454000D-02
  0.792700D+02 -0.181330D-01
  0.255900D+02 -0.557600D-01
  0.899700D+01 -0.126895D+00
  0.331900D+01 -0.170352D+00
  0.905900D+00  0.140382D+00
  0.364300D+00  0.598684D+00
  0.128500D+00  0.395389D+00
   s     1 1.00
  0.905900D+00  0.100000D+01
   s     1 1.00
  0.364300D+00  0.100000D+01
   p     5 1.00
  0.187100D+02  0.140310D-01
  0.413300D+01  0.868660D-01
  0.120000D+01  0.290216D+00
  0.382700D+00  0.501008D+00
  0.120900D+00  0.343406D+00
   p     1 1.00
  0.382700D+00  0.100000D+01
   p     1 1.00
  0.120900D+00  0.100000D+01
   d     1 1.00
  0.109700D+01  0.100000D+01
   d     1 1.00
  0.318000D+00  0.100000D+01
   f     1 1.00
  0.761000D+00  0.100000D+01
  
  7  0
   s    10 1.00
  0.823600D+04  0.531000D-03
  0.123500D+04  0.410800D-02
  0.280800D+03  0.210870D-01
  0.792700D+02  0.818530D-01
  0.255900D+02  0.234817D+00
  0.899700D+01  0.434401D+00
  0.331900D+01  0.346129D+00
  0.905900D+00  0.393780D-01
  0.364300D+00 -0.898300D-02
  0.128500D+00  0.238500D-02
   s    10 1.00
  0.823600D+04 -0.113000D-03
  0.123500D+04 -0.878000D-03
  0.280800D+03 -0.454000D-02
  0.792700D+02 -0.181330D-01
  0.255900D+02 -0.557600D-01
  0.899700D+01 -0.126895D+00
  0.331900D+01 -0.170352D+00
  0.905900D+00  0.140382D+00
  0.364300D+00  0.598684D+00
  0.128500D+00  0.395389D+00
   s     1 1.00
  0.905900D+00  0.100000D+01
   s     1 1.00
  0.364300D+00  0.100000D+01
   p     5 1.00
  0.187100D+02  0.140310D-01
  0.413300D+01  0.868660D-01
  0.120000D+01  0.290216D+00
  0.382700D+00  0.501008D+00
  0.120900D+00  0.343406D+00
   p     1 1.00
  0.382700D+00  0.100000D+01
   p     1 1.00
  0.120900D+00  0.100000D+01
   d     1 1.00
  0.109700D+01  0.100000D+01
   d     1 1.00
  0.318000D+00  0.100000D+01
   f     1 1.00
  0.761000D+00  0.100000D+01
  
  8  0
   s     4 1.00
  0.130100D+02  0.196850D-01
  0.196200D+01  0.137977D+00
  0.444600D+00  0.478148D+00
  0.122000D+00  0.501240D+00
   s     1 1.00
  0.122000D+00  0.100000D+01
   p     1 1.00
  0.727000D+00  0.100000D+01
  
  9  0
   s     4 1.00
  0.130100D+02  0.196850D-01
  0.196200D+01  0.137977D+00
  0.444600D+00  0.478148D+00
  0.122000D+00  0.501240D+00
   s     1 1.00
  0.122000D+00  0.100000D+01
   p     1 1.00
  0.727000D+00  0.100000D+01
  
 10  0
   s     4 1.00
  0.130100D+02  0.196850D-01
  0.196200D+01  0.137977D+00
  0.444600D+00  0.478148D+00
  0.122000D+00  0.501240D+00
   s     1 1.00
  0.122000D+00  0.100000D+01
   p     1 1.00
  0.727000D+00  0.100000D+01
  
 11  0
   s     4 1.00
  0.130100D+02  0.196850D-01
  0.196200D+01  0.137977D+00
  0.444600D+00  0.478148D+00
  0.122000D+00  0.501240D+00
   s     1 1.00
  0.122000D+00  0.100000D+01
   p     1 1.00
  0.727000D+00  0.100000D+01
  
 12  0
   s     4 1.00
  0.130100D+02  0.196850D-01
  0.196200D+01  0.137977D+00
  0.444600D+00  0.478148D+00
  0.122000D+00  0.501240D+00
   s     1 1.00
  0.122000D+00  0.100000D+01
   p     1 1.00
  0.727000D+00  0.100000D+01
  
 13  0
   s     4 1.00
  0.130100D+02  0.196850D-01
  0.196200D+01  0.137977D+00
  0.444600D+00  0.478148D+00
  0.122000D+00  0.501240D+00
   s     1 1.00
  0.122000D+00  0.100000D+01
   p     1 1.00
  0.727000D+00  0.100000D+01
  
 14  0
   s     4 1.00
  0.130100D+02  0.196850D-01
  0.196200D+01  0.137977D+00
  0.444600D+00  0.478148D+00
  0.122000D+00  0.501240D+00
   s     1 1.00
  0.122000D+00  0.100000D+01
   p     1 1.00
  0.727000D+00  0.100000D+01
  
[MO]
 Sym= __1_A__
 Ene=  0.000000000000000E+000
 Spin= Alpha
 Occup=    2.00000000000000     
                     1  6.219818961887952E-005
                     2  0.997780220360956     
                     3  1.179432006621271E-002
                     4  2.162248535181251E-003
                     5  1.070460224131877E-003
                     6  3.723507138695568E-007
                     7 -2.443321270578065E-006
                     8  3.003148806818531E-003
                     9 -4.038689998802649E-008
                    10  2.551052197663326E-007
                    11 -3.036110365580644E-004
                    12 -8.454734133151987E-008
                    13  5.247090922191019E-007
                    14 -6.782038760878042E-004
                    15  1.174783923825684E-004
                    16  6.803759154247038E-008
                    17 -2.167095324562075E-007
                    18  5.539681956460330E-005
                    19  6.092241416779746E-005
                    20 -1.882744700880072E-005
                    21 -2.167321151584787E-007
                    22  3.718423634999117E-007
                    23 -4.012685845152922E-004
                    24 -3.177726609031389E-004
                    25 -1.453915006178172E-004
                    26 -9.365512559294809E-009
                    27 -2.384386116107163E-007
                    28 -3.292850391909734E-005
                    29 -4.564687779766260E-005
                    30  5.016379192310420E-008
                    31  2.557473907606285E-008
                    32 -1.437929580826769E-004
                    33  2.516496728646085E-003
                    34  4.880058217656289E-005
                    35 -5.545125047512192E-004
                    36 -7.360573037433545E-007
                    37  4.876440108322903E-006
                    38 -6.004961860337010E-003
                    39 -4.329578125675202E-008
                    40  3.128160252404833E-007
                    41 -4.480027811004071E-004
                    42  4.097376362401393E-007
                    43 -2.745227694902709E-006
                    44  3.447981462076945E-003
                    45  3.723498641887000E-004
                    46  6.506757558429659E-008
                    47 -5.872178248238461E-007
                    48  9.154711143568943E-005
                    49 -3.607210873790564E-006
                    50  7.839193327944309E-004
                    51  2.060238161329496E-007
                    52 -1.353077834159317E-006
                    53  1.504164407553704E-004
                    54  7.283203730073707E-005
                    55 -2.670495973783966E-005
                    56 -8.602710430287605E-009
                    57 -1.144658457195714E-007
                    58  4.582788843160676E-005
                    59 -6.611030823567279E-006
                    60 -3.588868227065233E-010
                    61 -4.981326136563705E-008
                    62 -1.732120337660379E-004
                    63 -1.588684550221723E-003
                    64 -1.452019068100424E-005
                    65  8.273659238424322E-004
                    66  4.353941430408665E-005
                    67 -8.333494346127849E-004
                    68  1.158804795314657E-003
                    69  2.816788125529999E-005
                    70  1.488693207196468E-004
                    71  4.540584800670823E-005
                    72  3.961479491682361E-005
                    73 -5.418128154228478E-004
                    74 -3.470674606197607E-004
                    75  8.758789754903485E-005
                    76  2.811529966138011E-006
                    77 -1.381250452787090E-005
                    78  2.842057346417272E-005
                    79  2.180431309346002E-006
                    80  3.127240693839855E-005
                    81 -5.610982878567925E-006
                    82 -5.874115466318743E-005
                    83  1.124127288885333E-005
                    84  1.983770727632514E-005
                    85 -7.056122692988794E-005
                    86  5.632781078288871E-006
                    87 -5.644123059653730E-006
                    88  2.086870306215668E-005
                    89 -2.231935457634135E-006
                    90  3.421465907388402E-006
                    91  2.037793914599038E-005
                    92 -1.731806915526365E-004
                    93 -1.588559222407606E-003
                    94 -1.437973790951464E-005
                    95  8.269388778137889E-004
                    96 -4.326087394313108E-005
                    97  8.314899517542297E-004
                    98  1.160258136912021E-003
                    99 -2.813178565229241E-005
                   100 -1.490702751305425E-004
                   101  4.465521659154823E-005
                   102 -3.965905682163047E-005
                   103  5.418730225670513E-004
                   104 -3.460244868196363E-004
                   105  8.760101187763438E-005
                   106 -2.777067577994213E-006
                   107  1.353530947819869E-005
                   108  2.844322679301228E-005
                   109  2.187477878621765E-006
                   110  3.104935430921956E-005
                   111  5.676850498385221E-006
                   112  5.853061134823008E-005
                   113  1.126123372547666E-005
                   114  1.983981078555113E-005
                   115 -7.052578348483810E-005
                   116 -5.600394553753711E-006
                   117  5.316294599167224E-006
                   118  2.083469274616370E-005
                   119 -2.217513364735542E-006
                   120 -3.423645756322530E-006
                   121 -2.041859950147976E-005
                   122 -1.470967583053214E-004
                   123  2.313970740050677E-005
                   124  6.418741705845201E-005
                   125  3.006970294944560E-004
                   126 -6.682346592446042E-005
                   127  4.973242487774160E-005
                   128 -8.206653650815268E-004
                   129 -5.703883421724019E-006
                   130  3.243176930626560E-005
                   131  1.716311937896627E-004
                   132  1.539245091746932E-005
                   133 -4.777081210305753E-005
                   134  5.034603291302660E-004
                   135  1.552910320961621E-006
                   136  9.234042800216480E-007
                   137  4.800995168278098E-006
                   138 -3.692257263537306E-006
                   139  8.526979756637912E-007
                   140 -1.078113265322894E-004
                   141 -1.115618410008975E-005
                   142  8.521117476905385E-005
                   143  4.319174264671198E-005
                   144 -1.781259856863613E-006
                   145 -2.113277794688858E-005
                   146  3.104613390758668E-007
                   147 -4.698057074345130E-006
                   148 -9.028383507365485E-006
                   149 -1.274849092968633E-006
                   150 -1.085252066832884E-006
                   151 -2.195747112602987E-006
                   152 -1.475137828913090E-004
                   153  2.165574733631875E-005
                   154  6.373864987728213E-005
                   155  3.034367439528923E-004
                   156  6.661125430480744E-005
                   157 -4.834672044253718E-005
                   158 -8.207383140101111E-004
                   159  5.808677963191710E-006
                   160 -3.308614054352367E-005
                   161  1.713207823261770E-004
                   162 -1.532316467334837E-005
                   163  4.741611340172981E-005
                   164  5.037095535697268E-004
                   165  1.585568499962191E-006
                   166 -9.232929372424984E-007
                   167 -4.809132337745928E-006
                   168 -3.748176072396064E-006
                   169  8.425511053819293E-007
                   170 -1.079602425772602E-004
                   171  1.110722202858048E-005
                   172 -8.522401793971178E-005
                   173  4.299827858801860E-005
                   174 -1.825239700223203E-006
                   175 -2.107286804014467E-005
                   176 -2.926618407535651E-007
                   177  4.641728249052160E-006
                   178 -9.060766230895013E-006
                   179 -1.280766135084864E-006
                   180  1.092314279821407E-006
                   181  2.223052791595480E-006
                   182 -1.167774787652450E-004
                   183 -3.199593096357313E-004
                   184  2.336847058058755E-005
                   185  2.311170697902173E-004
                   186 -1.499762497108767E-008
                   187  1.132869381459584E-007
                   188 -3.621178210537117E-005
                   189  4.707841885329071E-008
                   190 -4.468443478083079E-007
                   191  6.198539882142609E-006
                   192  1.577242929933017E-009
                   193 -1.208553056920516E-008
                   194 -5.355728137178858E-005
                   195  2.239373726661270E-005
                   196  3.082105489153703E-009
                   197 -1.390629432922532E-008
                   198  7.321963882873950E-006
                   199  2.359871565502111E-006
                   200  2.138669478049143E-005
                   201 -1.533676653314343E-008
                   202  1.625661199074491E-007
                   203  2.759016571391908E-005
                   204  2.914754182590532E-006
                   205 -8.219580122733921E-006
                   206  4.772199879946097E-009
                   207 -2.248312312695312E-008
                   208 -3.266483102703976E-007
                   209  1.106597577722749E-006
                   210  6.188088571819241E-009
                   211  2.644442620218475E-008
                   212  5.768115087388889E-003
                   213 -3.174346054216779E-003
                   214  5.883029797796509E-004
                   215  2.003559861626988E-004
                   216  4.087621417437078E-004
                   217  5.768095772385436E-003
                   218 -3.174338137333950E-003
                   219 -5.882009607953779E-004
                   220 -2.010196381050417E-004
                   221  4.085798095367526E-004
                   222 -6.323867276778188E-004
                   223 -1.932513654205579E-004
                   224  4.183248963065828E-006
                   225 -3.797235181109605E-005
                   226 -4.570605644700578E-005
                   227 -6.324433155728332E-004
                   228 -1.929211695335256E-004
                   229 -4.194088760136137E-006
                   230  3.803003415901930E-005
                   231 -4.566581014954171E-005
                   232 -2.526474605647179E-004
                   233 -2.086959904981862E-004
                   234 -1.964377776586766E-006
                   235 -1.419480671856132E-005
                   236 -4.003653373365839E-006
                   237 -2.526862292781049E-004
                   238 -2.088282748789193E-004
                   239  1.958286098477321E-006
                   240  1.424195597433410E-005
                   241 -3.935432134849469E-006
                   242  1.215382719320767E-004
                   243 -1.215591464147281E-005
                   244  2.521077410642278E-009
                   245 -3.056406321487681E-008
                   246  1.117784107801951E-005
 Sym= __2_A__
 Ene=  0.000000000000000E+000
 Spin= Alpha
 Occup=    2.00000000000000     
                     1 -9.051945970678458E-006
                     2 -4.636029308678613E-005
                     3  1.789986416071040E-003
                     4 -1.356758147357313E-006
                     5  1.056983508069319E-003
                     6  2.201488442698323E-007
                     7 -1.499363409151477E-006
                     8  1.855798109368292E-003
                     9 -1.386288068000833E-008
                    10  1.057785924170067E-007
                    11 -1.332134111822156E-004
                    12  1.338691514187688E-008
                    13 -6.830426263405333E-008
                    14  8.884607358101764E-005
                    15  6.664711350304195E-005
                    16  2.014000837107358E-009
                    17 -9.931337774499483E-008
                    18  9.850458807641097E-006
                    19 -1.294179099317264E-005
                    20 -2.357998104018272E-005
                    21  3.983335667106431E-008
                    22  6.006029890000258E-008
                    23 -3.968064011284756E-005
                    24  4.665292655405523E-005
                    25  1.846760545275403E-004
                    26 -6.503049628819418E-008
                    27  4.351273143723645E-007
                    28 -5.304758317406924E-005
                    29 -1.673341460559697E-005
                    30  2.468743074187768E-008
                    31  5.045353992899582E-008
                    32   1.00096593637748     
                    33  8.870150640811642E-003
                    34  2.689307027373137E-003
                    35 -8.212388143357107E-003
                    36 -3.530038537642456E-007
                    37  2.336608115256684E-006
                    38 -2.894507777955605E-003
                    39  1.743363364341064E-007
                    40 -1.163048338073172E-006
                    41  1.443643851105408E-003
                    42  4.215382085135491E-007
                    43 -2.814659976742863E-006
                    44  3.400014710301935E-003
                    45  1.947596931738817E-004
                    46  7.255735873942789E-008
                    47  6.213999173281997E-008
                    48 -4.140339678098858E-004
                    49 -2.311397073141234E-005
                    50  4.746489149685323E-004
                    51  4.837795114688658E-008
                    52 -1.442074372396530E-006
                    53  9.666218777136630E-004
                    54  7.927349163923900E-005
                    55  2.553584818815911E-004
                    56 -4.920723110298135E-008
                    57  7.390879582514556E-007
                    58 -1.800140235330891E-004
                    59 -5.532534767081569E-006
                    60  3.256863109231051E-008
                    61  1.793572774009761E-007
                    62  1.491047410936253E-002
                    63 -1.750865289505113E-003
                    64 -2.963701924393518E-004
                    65  3.049453638045876E-003
                    66 -1.109254996503204E-005
                    67  2.957754796478529E-004
                    68 -1.254033791395205E-004
                    69 -1.909555553594578E-005
                    70  4.680530602771977E-004
                    71 -1.237388432129664E-005
                    72  1.269237817057000E-004
                    73 -1.857738425440262E-003
                    74  1.241853776716045E-004
                    75 -2.830632734677689E-005
                    76  1.186516282643534E-006
                    77  2.709713862632277E-005
                    78  1.980772504523176E-005
                    79  1.294266760389039E-006
                    80  8.689217942326102E-004
                    81  5.231237624830687E-005
                    82 -5.601042890763862E-004
                    83  1.873986043570740E-005
                    84 -1.050552497347215E-005
                    85  3.869074562290565E-005
                    86  2.196196869025241E-006
                    87  3.452064595924051E-005
                    88 -9.303111365657077E-005
                    89 -5.786395391481859E-006
                    90  8.386570168674199E-006
                    91  5.912651012662818E-005
                    92  1.491045071918316E-002
                    93 -1.750938425559608E-003
                    94 -2.964148212830760E-004
                    95  3.049638159859101E-003
                    96  1.106267015078249E-005
                    97 -2.955738144686868E-004
                    98 -1.259108123901984E-004
                    99  1.908659085786040E-005
                   100 -4.680234147495837E-004
                   101 -1.299819585351645E-005
                   102 -1.269049829229775E-004
                   103  1.857676930781651E-003
                   104  1.270818363652692E-004
                   105 -2.836882378262788E-005
                   106 -1.201667069887254E-006
                   107 -2.705589468762748E-005
                   108  1.976233794995031E-005
                   109  1.289922632223143E-006
                   110  8.705898013538174E-004
                   111 -5.197340325001563E-005
                   112  5.576835513365053E-004
                   113  1.965293394854226E-005
                   114 -1.028373113329617E-005
                   115  3.880958386426577E-005
                   116 -2.199385067073455E-006
                   117 -3.412605467334181E-005
                   118 -9.323710327674505E-005
                   119 -5.792497110455016E-006
                   120 -8.347042197092761E-006
                   121 -5.894316442810077E-005
                   122 -8.103469663265694E-005
                   123 -7.593112055772456E-004
                   124  2.357303122918848E-004
                   125 -2.548237405145982E-004
                   126 -8.032243559797820E-006
                   127 -6.292151341242401E-005
                   128 -1.644815789852377E-004
                   129  2.684956458123645E-005
                   130  9.705714772544002E-005
                   131  5.544071517665457E-004
                   132 -2.274469008835142E-005
                   133  3.687517461994351E-004
                   134  5.632528226179103E-004
                   135 -2.668449128146928E-005
                   136 -5.343749488660376E-006
                   137  4.985263391820875E-005
                   138  1.690716380630036E-005
                   139  6.933312075839982E-006
                   140 -3.207194933974301E-004
                   141 -6.138686939620841E-006
                   142 -3.341843074852216E-004
                   143 -3.942735004659936E-005
                   144 -3.988752110727942E-005
                   145 -1.096193654892306E-005
                   146  6.427076492835658E-006
                   147 -1.607827903914700E-005
                   148 -1.752269926853865E-005
                   149 -4.399705646738065E-006
                   150 -1.062133769085483E-006
                   151 -8.831444421474122E-006
                   152 -8.076408880324074E-005
                   153 -7.584168363733619E-004
                   154  2.358214127525135E-004
                   155 -2.558763486791011E-004
                   156  7.994671758666319E-006
                   157  6.317347944228818E-005
                   158 -1.643848224598135E-004
                   159 -2.672870912899447E-005
                   160 -9.787452491789075E-005