[Molden Format]
[Atoms] AU
  N     1    7    -0.0031692900   -0.0009972400   -4.3852485300        
  C     2    6    -0.0028437100   -0.0031605500   -1.7121109200        
  C     3    6     0.1196349500   -2.3131634800   -0.4180292800        
  C     4    6    -0.1250067000    2.3047448000   -0.4142623200        
  C     5    6     0.2125768200   -2.2803396800    2.1859063400        
  C     6    6    -0.2173142500    2.2677064200    2.1896393200        
  C     7    6    -0.0022112500   -0.0073629300    3.4806501200        
  H     8    1    -1.5903417000   -0.5589382900   -5.4070066000        
  H     9    1     1.5837542600    0.5585971500   -5.4064887800        
  H    10    1     0.2270400900   -4.0430284600   -1.4553561100        
  H    11    1    -0.2326641700    4.0362864600   -1.4487617300        
  H    12    1     0.4127893700   -4.0156822100    3.2105513200        
  H    13    1    -0.4172768400    4.0013882000    3.2171404400        
  H    14    1    -0.0019641400   -0.0090047500    5.5094040800        
[5D]
[7F]
[GTO]
  1  0
   s    12 1.00
  0.114200D+05  0.172695D-04
  0.171200D+04  0.134411D-03
  0.389300D+03  0.694561D-03
  0.110000D+03  0.278531D-02
  0.355700D+02  0.863457D-02
  0.125400D+02  0.199805D-01
  0.464400D+01  0.262908D-01
  0.129300D+01 -0.243845D-01
  0.511800D+00 -0.924934D-01
  0.178700D+00 -0.339683D+00
  0.246240D-01  0.345111D+00
  0.112530D-01  0.752750D+00
   s    10 1.00
  0.114200D+05  0.523000D-03
  0.171200D+04  0.404500D-02
  0.389300D+03  0.207750D-01
  0.110000D+03  0.807269D-01
  0.355700D+02  0.233074D+00
  0.125400D+02  0.433501D+00
  0.464400D+01  0.347472D+00
  0.129300D+01  0.412620D-01
  0.511800D+00 -0.850799D-02
  0.178700D+00  0.238400D-02
   s    10 1.00
  0.114200D+05 -0.115000D-03
  0.171200D+04 -0.895000D-03
  0.389300D+03 -0.462400D-02
  0.110000D+03 -0.185280D-01
  0.355700D+02 -0.573390D-01
  0.125400D+02 -0.132076D+00
  0.464400D+01 -0.172510D+00
  0.129300D+01  0.151814D+00
  0.511800D+00  0.599944D+00
  0.178700D+00  0.387462D+00
   s     1 1.00
  0.129300D+01  0.100000D+01
   s     1 1.00
  0.178700D+00  0.100000D+01
   p     5 1.00
  0.266300D+02  0.146700D-01
  0.594800D+01  0.917640D-01
  0.174200D+01  0.298683D+00
  0.555000D+00  0.498487D+00
  0.172500D+00  0.337023D+00
   p     1 1.00
  0.174200D+01  0.100000D+01
   p     1 1.00
  0.555000D+00  0.100000D+01
   d     1 1.00
  0.165400D+01  0.100000D+01
   d     1 1.00
  0.469000D+00  0.100000D+01
   f     1 1.00
  0.109300D+01  0.100000D+01
  
  2  0
   s    10 1.00
  0.823600D+04  0.531000D-03
  0.123500D+04  0.410800D-02
  0.280800D+03  0.210870D-01
  0.792700D+02  0.818530D-01
  0.255900D+02  0.234817D+00
  0.899700D+01  0.434401D+00
  0.331900D+01  0.346129D+00
  0.905900D+00  0.393780D-01
  0.364300D+00 -0.898300D-02
  0.128500D+00  0.238500D-02
   s    10 1.00
  0.823600D+04 -0.113000D-03
  0.123500D+04 -0.878000D-03
  0.280800D+03 -0.454000D-02
  0.792700D+02 -0.181330D-01
  0.255900D+02 -0.557600D-01
  0.899700D+01 -0.126895D+00
  0.331900D+01 -0.170352D+00
  0.905900D+00  0.140382D+00
  0.364300D+00  0.598684D+00
  0.128500D+00  0.395389D+00
   s     1 1.00
  0.905900D+00  0.100000D+01
   s     1 1.00
  0.364300D+00  0.100000D+01
   p     5 1.00
  0.187100D+02  0.140310D-01
  0.413300D+01  0.868660D-01
  0.120000D+01  0.290216D+00
  0.382700D+00  0.501008D+00
  0.120900D+00  0.343406D+00
   p     1 1.00
  0.382700D+00  0.100000D+01
   p     1 1.00
  0.120900D+00  0.100000D+01
   d     1 1.00
  0.109700D+01  0.100000D+01
   d     1 1.00
  0.318000D+00  0.100000D+01
   f     1 1.00
  0.761000D+00  0.100000D+01
  
  3  0
   s    10 1.00
  0.823600D+04  0.531000D-03
  0.123500D+04  0.410800D-02
  0.280800D+03  0.210870D-01
  0.792700D+02  0.818530D-01
  0.255900D+02  0.234817D+00
  0.899700D+01  0.434401D+00
  0.331900D+01  0.346129D+00
  0.905900D+00  0.393780D-01
  0.364300D+00 -0.898300D-02
  0.128500D+00  0.238500D-02
   s    10 1.00
  0.823600D+04 -0.113000D-03
  0.123500D+04 -0.878000D-03
  0.280800D+03 -0.454000D-02
  0.792700D+02 -0.181330D-01
  0.255900D+02 -0.557600D-01
  0.899700D+01 -0.126895D+00
  0.331900D+01 -0.170352D+00
  0.905900D+00  0.140382D+00
  0.364300D+00  0.598684D+00
  0.128500D+00  0.395389D+00
   s     1 1.00
  0.905900D+00  0.100000D+01
   s     1 1.00
  0.364300D+00  0.100000D+01
   p     5 1.00
  0.187100D+02  0.140310D-01
  0.413300D+01  0.868660D-01
  0.120000D+01  0.290216D+00
  0.382700D+00  0.501008D+00
  0.120900D+00  0.343406D+00
   p     1 1.00
  0.382700D+00  0.100000D+01
   p     1 1.00
  0.120900D+00  0.100000D+01
   d     1 1.00
  0.109700D+01  0.100000D+01
   d     1 1.00
  0.318000D+00  0.100000D+01
   f     1 1.00
  0.761000D+00  0.100000D+01
  
  4  0
   s    10 1.00
  0.823600D+04  0.531000D-03
  0.123500D+04  0.410800D-02
  0.280800D+03  0.210870D-01
  0.792700D+02  0.818530D-01
  0.255900D+02  0.234817D+00
  0.899700D+01  0.434401D+00
  0.331900D+01  0.346129D+00
  0.905900D+00  0.393780D-01
  0.364300D+00 -0.898300D-02
  0.128500D+00  0.238500D-02
   s    10 1.00
  0.823600D+04 -0.113000D-03
  0.123500D+04 -0.878000D-03
  0.280800D+03 -0.454000D-02
  0.792700D+02 -0.181330D-01
  0.255900D+02 -0.557600D-01
  0.899700D+01 -0.126895D+00
  0.331900D+01 -0.170352D+00
  0.905900D+00  0.140382D+00
  0.364300D+00  0.598684D+00
  0.128500D+00  0.395389D+00
   s     1 1.00
  0.905900D+00  0.100000D+01
   s     1 1.00
  0.364300D+00  0.100000D+01
   p     5 1.00
  0.187100D+02  0.140310D-01
  0.413300D+01  0.868660D-01
  0.120000D+01  0.290216D+00
  0.382700D+00  0.501008D+00
  0.120900D+00  0.343406D+00
   p     1 1.00
  0.382700D+00  0.100000D+01
   p     1 1.00
  0.120900D+00  0.100000D+01
   d     1 1.00
  0.109700D+01  0.100000D+01
   d     1 1.00
  0.318000D+00  0.100000D+01
   f     1 1.00
  0.761000D+00  0.100000D+01
  
  5  0
   s    10 1.00
  0.823600D+04  0.531000D-03
  0.123500D+04  0.410800D-02
  0.280800D+03  0.210870D-01
  0.792700D+02  0.818530D-01
  0.255900D+02  0.234817D+00
  0.899700D+01  0.434401D+00
  0.331900D+01  0.346129D+00
  0.905900D+00  0.393780D-01
  0.364300D+00 -0.898300D-02
  0.128500D+00  0.238500D-02
   s    10 1.00
  0.823600D+04 -0.113000D-03
  0.123500D+04 -0.878000D-03
  0.280800D+03 -0.454000D-02
  0.792700D+02 -0.181330D-01
  0.255900D+02 -0.557600D-01
  0.899700D+01 -0.126895D+00
  0.331900D+01 -0.170352D+00
  0.905900D+00  0.140382D+00
  0.364300D+00  0.598684D+00
  0.128500D+00  0.395389D+00
   s     1 1.00
  0.905900D+00  0.100000D+01
   s     1 1.00
  0.364300D+00  0.100000D+01
   p     5 1.00
  0.187100D+02  0.140310D-01
  0.413300D+01  0.868660D-01
  0.120000D+01  0.290216D+00
  0.382700D+00  0.501008D+00
  0.120900D+00  0.343406D+00
   p     1 1.00
  0.382700D+00  0.100000D+01
   p     1 1.00
  0.120900D+00  0.100000D+01
   d     1 1.00
  0.109700D+01  0.100000D+01
   d     1 1.00
  0.318000D+00  0.100000D+01
   f     1 1.00
  0.761000D+00  0.100000D+01
  
  6  0
   s    10 1.00
  0.823600D+04  0.531000D-03
  0.123500D+04  0.410800D-02
  0.280800D+03  0.210870D-01
  0.792700D+02  0.818530D-01
  0.255900D+02  0.234817D+00
  0.899700D+01  0.434401D+00
  0.331900D+01  0.346129D+00
  0.905900D+00  0.393780D-01
  0.364300D+00 -0.898300D-02
  0.128500D+00  0.238500D-02
   s    10 1.00
  0.823600D+04 -0.113000D-03
  0.123500D+04 -0.878000D-03
  0.280800D+03 -0.454000D-02
  0.792700D+02 -0.181330D-01
  0.255900D+02 -0.557600D-01
  0.899700D+01 -0.126895D+00
  0.331900D+01 -0.170352D+00
  0.905900D+00  0.140382D+00
  0.364300D+00  0.598684D+00
  0.128500D+00  0.395389D+00
   s     1 1.00
  0.905900D+00  0.100000D+01
   s     1 1.00
  0.364300D+00  0.100000D+01
   p     5 1.00
  0.187100D+02  0.140310D-01
  0.413300D+01  0.868660D-01
  0.120000D+01  0.290216D+00
  0.382700D+00  0.501008D+00
  0.120900D+00  0.343406D+00
   p     1 1.00
  0.382700D+00  0.100000D+01
   p     1 1.00
  0.120900D+00  0.100000D+01
   d     1 1.00
  0.109700D+01  0.100000D+01
   d     1 1.00
  0.318000D+00  0.100000D+01
   f     1 1.00
  0.761000D+00  0.100000D+01
  
  7  0
   s    10 1.00
  0.823600D+04  0.531000D-03
  0.123500D+04  0.410800D-02
  0.280800D+03  0.210870D-01
  0.792700D+02  0.818530D-01
  0.255900D+02  0.234817D+00
  0.899700D+01  0.434401D+00
  0.331900D+01  0.346129D+00
  0.905900D+00  0.393780D-01
  0.364300D+00 -0.898300D-02
  0.128500D+00  0.238500D-02
   s    10 1.00
  0.823600D+04 -0.113000D-03
  0.123500D+04 -0.878000D-03
  0.280800D+03 -0.454000D-02
  0.792700D+02 -0.181330D-01
  0.255900D+02 -0.557600D-01
  0.899700D+01 -0.126895D+00
  0.331900D+01 -0.170352D+00
  0.905900D+00  0.140382D+00
  0.364300D+00  0.598684D+00
  0.128500D+00  0.395389D+00
   s     1 1.00
  0.905900D+00  0.100000D+01
   s     1 1.00
  0.364300D+00  0.100000D+01
   p     5 1.00
  0.187100D+02  0.140310D-01
  0.413300D+01  0.868660D-01
  0.120000D+01  0.290216D+00
  0.382700D+00  0.501008D+00
  0.120900D+00  0.343406D+00
   p     1 1.00
  0.382700D+00  0.100000D+01
   p     1 1.00
  0.120900D+00  0.100000D+01
   d     1 1.00
  0.109700D+01  0.100000D+01
   d     1 1.00
  0.318000D+00  0.100000D+01
   f     1 1.00
  0.761000D+00  0.100000D+01
  
  8  0
   s     4 1.00
  0.130100D+02  0.196850D-01
  0.196200D+01  0.137977D+00
  0.444600D+00  0.478148D+00
  0.122000D+00  0.501240D+00
   s     1 1.00
  0.122000D+00  0.100000D+01
   p     1 1.00
  0.727000D+00  0.100000D+01
  
  9  0
   s     4 1.00
  0.130100D+02  0.196850D-01
  0.196200D+01  0.137977D+00
  0.444600D+00  0.478148D+00
  0.122000D+00  0.501240D+00
   s     1 1.00
  0.122000D+00  0.100000D+01
   p     1 1.00
  0.727000D+00  0.100000D+01
  
 10  0
   s     4 1.00
  0.130100D+02  0.196850D-01
  0.196200D+01  0.137977D+00
  0.444600D+00  0.478148D+00
  0.122000D+00  0.501240D+00
   s     1 1.00
  0.122000D+00  0.100000D+01
   p     1 1.00
  0.727000D+00  0.100000D+01
  
 11  0
   s     4 1.00
  0.130100D+02  0.196850D-01
  0.196200D+01  0.137977D+00
  0.444600D+00  0.478148D+00
  0.122000D+00  0.501240D+00
   s     1 1.00
  0.122000D+00  0.100000D+01
   p     1 1.00
  0.727000D+00  0.100000D+01
  
 12  0
   s     4 1.00
  0.130100D+02  0.196850D-01
  0.196200D+01  0.137977D+00
  0.444600D+00  0.478148D+00
  0.122000D+00  0.501240D+00
   s     1 1.00
  0.122000D+00  0.100000D+01
   p     1 1.00
  0.727000D+00  0.100000D+01
  
 13  0
   s     4 1.00
  0.130100D+02  0.196850D-01
  0.196200D+01  0.137977D+00
  0.444600D+00  0.478148D+00
  0.122000D+00  0.501240D+00
   s     1 1.00
  0.122000D+00  0.100000D+01
   p     1 1.00
  0.727000D+00  0.100000D+01
  
 14  0
   s     4 1.00
  0.130100D+02  0.196850D-01
  0.196200D+01  0.137977D+00
  0.444600D+00  0.478148D+00
  0.122000D+00  0.501240D+00
   s     1 1.00
  0.122000D+00  0.100000D+01
   p     1 1.00
  0.727000D+00  0.100000D+01
  
[MO]
 Sym= __1_A__
 Ene=   1.00000000000000     
 Spin= Alpha
 Occup=    1.00000000000000     
                     1  6.219819026416464E-005
                     2  0.997780220359814     
                     3  1.179432007430437E-002
                     4  2.162248535019356E-003
                     5  1.070460217038834E-003
                     6  3.723507153191442E-007
                     7 -2.443321276724921E-006
                     8  3.003148807396429E-003
                     9 -4.038689952738071E-008
                    10  2.551052176358438E-007
                    11 -3.036110347013670E-004
                    12 -8.454734102742710E-008
                    13  5.247090914210882E-007
                    14 -6.782038760573946E-004
                    15  1.174783927354070E-004
                    16  6.803759155284434E-008
                    17 -2.167095335544429E-007
                    18  5.539681957650768E-005
                    19  6.092241421677568E-005
                    20 -1.882744578316471E-005
                    21 -2.167321154097785E-007
                    22  3.718423596064852E-007
                    23 -4.012685844386644E-004
                    24 -3.177726612368572E-004
                    25 -1.453915006771446E-004
                    26 -9.365512567905198E-009
                    27 -2.384386118625050E-007
                    28 -3.292850399242358E-005
                    29 -4.564687780041411E-005
                    30  5.016379186473950E-008
                    31  2.557473908937685E-008
                    32 -1.437929053399479E-004
                    33  2.516496946716391E-003
                    34  4.880057976393090E-005
                    35 -5.545125110756535E-004
                    36 -7.360572970255048E-007
                    37  4.876439925187503E-006
                    38 -6.004961771678500E-003
                    39 -4.329578209136856E-008
                    40  3.128160346991418E-007
                    41 -4.480027851747862E-004
                    42  4.097376338481453E-007
                    43 -2.745227658441718E-006
                    44  3.447981463158946E-003
                    45  3.723498633755638E-004
                    46  6.506757568135458E-008
                    47 -5.872178232499713E-007
                    48  9.154710690010370E-005
                    49 -3.607211261091561E-006
                    50  7.839193323698322E-004
                    51  2.060238166107209E-007
                    52 -1.353077833336315E-006
                    53  1.504164341812117E-004
                    54  7.283203709388869E-005
                    55 -2.670495688909003E-005
                    56 -8.602711125111663E-009
                    57 -1.144658360887525E-007
                    58  4.582788513958474E-005
                    59 -6.611031203085608E-006
                    60 -3.588859622211238E-010
                    61 -4.981325730453179E-008
                    62 -1.732120350883255E-004
                    63 -1.588684507662149E-003
                    64 -1.452019097639220E-005
                    65  8.273659261363920E-004
                    66  4.353940787508884E-005
                    67 -8.333493254868968E-004
                    68  1.158804749130000E-003
                    69  2.816788187254875E-005
                    70  1.488693115974188E-004
                    71  4.540585815172479E-005
                    72  3.961479793129718E-005
                    73 -5.418128579228749E-004
                    74 -3.470674415196876E-004
                    75  8.758789586191043E-005
                    76  2.811530179237462E-006
                    77 -1.381250763573271E-005
                    78  2.842057126712490E-005
                    79  2.180431062564464E-006
                    80  3.127240701156691E-005
                    81 -5.610982702288952E-006
                    82 -5.874115538281309E-005
                    83  1.124126975764750E-005
                    84  1.983770689635818E-005
                    85 -7.056122780180429E-005
                    86  5.632781128873076E-006
                    87 -5.644123301328005E-006
                    88  2.086870397483182E-005
                    89 -2.231935327006834E-006
                    90  3.421465774535765E-006
                    91  2.037793830968365E-005
                    92 -1.731806928749145E-004
                    93 -1.588559179945312E-003
                    94 -1.437973820375314E-005
                    95  8.269388801166680E-004
                    96 -4.326086754255046E-005
                    97  8.314898428270232E-004
                    98  1.160258090623432E-003
                    99 -2.813178626657700E-005
                   100 -1.490702660342636E-004
                   101  4.465522674750679E-005
                   102 -3.965905983001848E-005
                   103  5.418730650240045E-004
                   104 -3.460244676603579E-004
                   105  8.760101019976707E-005
                   106 -2.777067791235948E-006
                   107  1.353531258992609E-005
                   108  2.844322460302318E-005
                   109  2.187477633488597E-006
                   110  3.104935438378013E-005
                   111  5.676850323133853E-006
                   112  5.853061206904676E-005
                   113  1.126123059676786E-005
                   114  1.983981040671690E-005
                   115 -7.052578435685110E-005
                   116 -5.600394603877262E-006
                   117  5.316294835745427E-006
                   118  2.083469365964024E-005
                   119 -2.217513234140032E-006
                   120 -3.423645624277673E-006
                   121 -2.041859866769397E-005
                   122 -1.470967603710400E-004
                   123  2.313966877953489E-005
                   124  6.418741876566280E-005
                   125  3.006970343432884E-004
                   126 -6.682346265734307E-005
                   127  4.973241320875465E-005
                   128 -8.206653510472342E-004
                   129 -5.703883529816064E-006
                   130  3.243177138307812E-005
                   131  1.716311970389898E-004
                   132  1.539245120822746E-005
                   133 -4.777081245018191E-005
                   134  5.034603472920016E-004
                   135  1.552910003107369E-006
                   136  9.234043500572041E-007
                   137  4.800993241520052E-006
                   138 -3.692256930348590E-006
                   139  8.526980171228328E-007
                   140 -1.078113289371721E-004
                   141 -1.115618436120615E-005
                   142  8.521117341682132E-005
                   143  4.319174294360380E-005
                   144 -1.781259935068660E-006
                   145 -2.113277864739148E-005
                   146  3.104613719839705E-007
                   147 -4.698056265077136E-006
                   148 -9.028383511047053E-006
                   149 -1.274849092574954E-006
                   150 -1.085252004717948E-006
                   151 -2.195746921778056E-006
                   152 -1.475137849554222E-004
                   153  2.165570872820259E-005
                   154  6.373865158420766E-005
                   155  3.034367488023027E-004
                   156  6.661125104628753E-005
                   157 -4.834670880260933E-005
                   158 -8.207382999745164E-004
                   159  5.808678071826873E-006
                   160 -3.308614262430556E-005
                   161  1.713207855728996E-004
                   162 -1.532316495918231E-005
                   163  4.741611371310612E-005
                   164  5.037095717370985E-004
                   165  1.585568188149127E-006
                   166 -9.232930071293623E-007
                   167 -4.809130412565888E-006
                   168 -3.748175736005594E-006
                   169  8.425511473861048E-007
                   170 -1.079602449791062E-004
                   171  1.110722228912413E-005
                   172 -8.522401658296136E-005
                   173  4.299827888672188E-005
                   174 -1.825239778817705E-006
                   175 -2.107286873718578E-005
                   176 -2.926618733183107E-007
                   177  4.641727437693501E-006
                   178 -9.060766237119399E-006
                   179 -1.280766135081106E-006
                   180  1.092314217788148E-006
                   181  2.223052600895238E-006
                   182 -1.167774815044919E-004
                   183 -3.199593472662630E-004
                   184  2.336847152106407E-005
                   185  2.311170759972563E-004
                   186 -1.499761835243666E-008
                   187  1.132869240069551E-007
                   188 -3.621175647930006E-005
                   189  4.707841860703655E-008
                   190 -4.468443463863640E-007
                   191  6.198538217810236E-006
                   192  1.577242812819742E-009
                   193 -1.208552767759224E-008
                   194 -5.355728724859011E-005
                   195  2.239373754945971E-005
                   196  3.082105514352404E-009
                   197 -1.390629540187101E-008
                   198  7.321964471876672E-006
                   199  2.359871626415427E-006
                   200  2.138669665294710E-005
                   201 -1.533676625839364E-008
                   202  1.625661158806215E-007
                   203  2.759016698761508E-005
                   204  2.914754262091330E-006
                   205 -8.219579861952055E-006
                   206  4.772199838692598E-009
                   207 -2.248312226840119E-008
                   208 -3.266486326511746E-007
                   209  1.106597547023398E-006
                   210  6.188088673735943E-009
                   211  2.644442644527634E-008
                   212  5.768115090088794E-003
                   213 -3.174346051794482E-003
                   214  5.883029799367501E-004
                   215  2.003559861330087E-004
                   216  4.087621417240406E-004
                   217  5.768095775089839E-003
                   218 -3.174338134910020E-003
                   219 -5.882009609524165E-004
                   220 -2.010196380752255E-004
                   221  4.085798095170818E-004
                   222 -6.323867703247058E-004
                   223 -1.932513637895711E-004
                   224  4.183249051107900E-006
                   225 -3.797235310217758E-005
                   226 -4.570605851317236E-005
                   227 -6.324433581844890E-004
                   228 -1.929211679063007E-004
                   229 -4.194088848834330E-006
                   230  3.803003545352185E-005
                   231 -4.566581221152912E-005
                   232 -2.526474490043022E-004
                   233 -2.086960003008223E-004
                   234 -1.964377762442601E-006
                   235 -1.419480659051533E-005
                   236 -4.003653074701372E-006
                   237 -2.526862177383511E-004
                   238 -2.088282846799002E-004
                   239  1.958286084430987E-006
                   240  1.424195584662013E-005
                   241 -3.935431836453115E-006
                   242  1.215382820655087E-004
                   243 -1.215592142963567E-005
                   244  2.521077490317691E-009
                   245 -3.056406307205884E-008
                   246  1.117784097145812E-005
 Sym= __2_A__
 Ene=   2.00000000000000     
 Spin= Alpha
 Occup=    1.00000000000000     
                     1 -9.051947097049590E-006
                     2 -4.636035264509940E-005
                     3  1.789986420812571E-003
                     4 -1.356757510305576E-006
                     5  1.056983497266912E-003
                     6  2.201488432968797E-007
                     7 -1.499363402045353E-006
                     8  1.855798105635638E-003
                     9 -1.386288095032324E-008
                    10  1.057785914733383E-007
                    11 -1.332134073962578E-004
                    12  1.338691569338915E-008
                    13 -6.830427005453155E-008
                    14  8.884607322873737E-005
                    15  6.664711372190691E-005
                    16  2.014001085795227E-009
                    17 -9.931337751006590E-008
                    18  9.850458623392836E-006
                    19 -1.294179099399066E-005
                    20 -2.357997986533312E-005
                    21  3.983335618958290E-008
                    22  6.006028968404763E-008
                    23 -3.968063760688168E-005
                    24  4.665292685773904E-005
                    25  1.846760538570699E-004
                    26 -6.503049639571346E-008
                    27  4.351273112702680E-007
                    28 -5.304758243013310E-005
                    29 -1.673341462948482E-005
                    30  2.468743060840038E-008
                    31  5.045353893190359E-008
                    32   1.00096593587463     
                    33  8.870150770223902E-003
                    34  2.689307012121734E-003
                    35 -8.212388057939907E-003
                    36 -3.530038433364327E-007
                    37  2.336608127860746E-006
                    38 -2.894507702395990E-003
                    39  1.743363382627432E-007
                    40 -1.163048335582189E-006
                    41  1.443643861705632E-003
                    42  4.215382110182154E-007
                    43 -2.814660023719337E-006
                    44  3.400014698773914E-003
                    45  1.947596916624871E-004
                    46  7.255735847677757E-008
                    47  6.213999896308823E-008
                    48 -4.140339698533622E-004
                    49 -2.311397087180157E-005
                    50  4.746489081256052E-004
                    51  4.837795281854214E-008
                    52 -1.442074355989974E-006
                    53  9.666218500182533E-004
                    54  7.927349011626430E-005
                    55  2.553584814015068E-004
                    56 -4.920723055972754E-008
                    57  7.390879573760435E-007
                    58 -1.800140235288475E-004
                    59 -5.532534628923142E-006
                    60  3.256863165853378E-008
                    61  1.793572802644463E-007
                    62  1.491048950388265E-002
                    63 -1.750865130457689E-003
                    64 -2.963701413677023E-004
                    65  3.049453501892418E-003
                    66 -1.109255656251990E-005
                    67  2.957755641698110E-004
                    68 -1.254034188135706E-004
                    69 -1.909555312147352E-005
                    70  4.680530351682582E-004
                    71 -1.237388124771502E-005
                    72  1.269237846595690E-004
                    73 -1.857738451767458E-003
                    74  1.241853983816030E-004
                    75 -2.830632396953847E-005
                    76  1.186516691506834E-006
                    77  2.709713571415857E-005
                    78  1.980771822092694E-005
                    79  1.294266008123503E-006
                    80  8.689217825355815E-004
                    81  5.231237519300031E-005
                    82 -5.601042761369730E-004
                    83  1.873986140415453E-005
                    84 -1.050552431254751E-005
                    85  3.869074124601975E-005
                    86  2.196197016869988E-006
                    87  3.452064532663098E-005
                    88 -9.303110934320568E-005
                    89 -5.786394861728521E-006
                    90  8.386570415930640E-006
                    91  5.912651122696900E-005
                    92  1.491046615316986E-002
                    93 -1.750938266125570E-003
                    94 -2.964147700989429E-004
                    95  3.049638023384958E-003
                    96  1.106267675180903E-005
                    97 -2.955738989969743E-004
                    98 -1.259108522193527E-004
                    99  1.908658844256335E-005
                   100 -4.680233896398661E-004
                   101 -1.299819277928074E-005
                   102 -1.269049858729614E-004
                   103  1.857676957035863E-003
                   104  1.270818571114309E-004
                   105 -2.836882038615158E-005
                   106 -1.201667477755557E-006
                   107 -2.705589176841803E-005
                   108  1.976233111371151E-005
                   109  1.289921879329456E-006
                   110  8.705897895876239E-004
                   111 -5.197340219690916E-005
                   112  5.576835384070679E-004
                   113  1.965293489392257E-005
                   114 -1.028373047646732E-005
                   115  3.880957947802446E-005
                   116 -2.199385212766887E-006
                   117 -3.412605406827059E-005
                   118 -9.323709895497831E-005
                   119 -5.792496578989157E-006
                   120 -8.347042446971205E-006
                   121 -5.894316553838009E-005
                   122 -8.103413492530453E-005
                   123 -7.593112551519146E-004
                   124  2.357303089862371E-004
                   125 -2.548236818207116E-004
                   126 -8.032241143119877E-006
                   127 -6.292152369838890E-005
                   128 -1.644815653160225E-004
                   129  2.684956317960080E-005
                   130  9.705715452014447E-005
                   131  5.544071428449492E-004
                   132 -2.274468868717003E-005
                   133  3.687517343376058E-004
                   134  5.632528558057208E-004
                   135 -2.668449174552530E-005
                   136 -5.343749493135527E-006
                   137  4.985263206666992E-005
                   138  1.690716398697379E-005
                   139  6.933312041581104E-006
                   140 -3.207194904329285E-004
                   141 -6.138686949175568E-006
                   142 -3.341842983839712E-004
                   143 -3.942735474358176E-005
                   144 -3.988752165957561E-005
                   145 -1.096193891875658E-005
                   146  6.427076593726267E-006
                   147 -1.607827790818181E-005
                   148 -1.752269961227657E-005
                   149 -4.399705674697109E-006
                   150 -1.062133849747972E-006
                   151 -8.831444624880636E-006
                   152 -8.076352582076525E-005
                   153 -7.584168859731373E-004
                   154  2.358214094353772E-004
                   155 -2.558762898976830E-004
                   156  7.994669346344061E-006
                   157  6.317348971132355E-005
                   158 -1.643848087818092E-004
                   159 -2.672870772602141E-005
                   160 -9.787453170423197E-005