[Molden Format]
[Atoms] AU
  N     1    7    -0.0517765700   -4.3089844900    0.0000000100        
  C     2    6     0.0647538100   -1.7783246500   -0.0000000200        
  C     3    6    -2.2678766300   -0.3983327800   -0.0000000200        
  C     4    6     2.3593468100   -0.3388541700   -0.0000000400        
  C     5    6    -2.2678819000    2.1847686800   -0.0000000100        
  C     6    6     2.3086640900    2.2443344000    0.0000000100        
  C     7    6     0.0059438200    3.5355861800    0.0000000100        
  H     8    1    -3.6006927000   -6.8181930200    0.0000000700        
  H     9    1     1.7509000100   -5.0388157400    0.0000000100        
  H    10    1    -3.9964914400   -1.4515209000   -0.0000000400        
  H    11    1     4.1294359000   -1.3321065800   -0.0000000400        
  H    12    1    -4.0272855100    3.1961068700   -0.0000000300        
  H    13    1     4.0451721000    3.2943620000    0.0000000400        
  H    14    1    -0.0194439900    5.5632985900    0.0000000400        
[5D]
[7F]
[GTO]
  1  0
   s    12 1.00
  0.114200D+05  0.172695D-04
  0.171200D+04  0.134411D-03
  0.389300D+03  0.694561D-03
  0.110000D+03  0.278531D-02
  0.355700D+02  0.863457D-02
  0.125400D+02  0.199805D-01
  0.464400D+01  0.262908D-01
  0.129300D+01 -0.243845D-01
  0.511800D+00 -0.924934D-01
  0.178700D+00 -0.339683D+00
  0.246240D-01  0.345111D+00
  0.112530D-01  0.752750D+00
   s    10 1.00
  0.114200D+05  0.523000D-03
  0.171200D+04  0.404500D-02
  0.389300D+03  0.207750D-01
  0.110000D+03  0.807269D-01
  0.355700D+02  0.233074D+00
  0.125400D+02  0.433501D+00
  0.464400D+01  0.347472D+00
  0.129300D+01  0.412620D-01
  0.511800D+00 -0.850799D-02
  0.178700D+00  0.238400D-02
   s    10 1.00
  0.114200D+05 -0.115000D-03
  0.171200D+04 -0.895000D-03
  0.389300D+03 -0.462400D-02
  0.110000D+03 -0.185280D-01
  0.355700D+02 -0.573390D-01
  0.125400D+02 -0.132076D+00
  0.464400D+01 -0.172510D+00
  0.129300D+01  0.151814D+00
  0.511800D+00  0.599944D+00
  0.178700D+00  0.387462D+00
   s     1 1.00
  0.129300D+01  0.100000D+01
   s     1 1.00
  0.178700D+00  0.100000D+01
   p     5 1.00
  0.266300D+02  0.146700D-01
  0.594800D+01  0.917640D-01
  0.174200D+01  0.298683D+00
  0.555000D+00  0.498487D+00
  0.172500D+00  0.337023D+00
   p     1 1.00
  0.174200D+01  0.100000D+01
   p     1 1.00
  0.555000D+00  0.100000D+01
   d     1 1.00
  0.165400D+01  0.100000D+01
   d     1 1.00
  0.469000D+00  0.100000D+01
   f     1 1.00
  0.109300D+01  0.100000D+01
  
  2  0
   s    10 1.00
  0.823600D+04  0.531000D-03
  0.123500D+04  0.410800D-02
  0.280800D+03  0.210870D-01
  0.792700D+02  0.818530D-01
  0.255900D+02  0.234817D+00
  0.899700D+01  0.434401D+00
  0.331900D+01  0.346129D+00
  0.905900D+00  0.393780D-01
  0.364300D+00 -0.898300D-02
  0.128500D+00  0.238500D-02
   s    10 1.00
  0.823600D+04 -0.113000D-03
  0.123500D+04 -0.878000D-03
  0.280800D+03 -0.454000D-02
  0.792700D+02 -0.181330D-01
  0.255900D+02 -0.557600D-01
  0.899700D+01 -0.126895D+00
  0.331900D+01 -0.170352D+00
  0.905900D+00  0.140382D+00
  0.364300D+00  0.598684D+00
  0.128500D+00  0.395389D+00
   s     1 1.00
  0.905900D+00  0.100000D+01
   s     1 1.00
  0.364300D+00  0.100000D+01
   p     5 1.00
  0.187100D+02  0.140310D-01
  0.413300D+01  0.868660D-01
  0.120000D+01  0.290216D+00
  0.382700D+00  0.501008D+00
  0.120900D+00  0.343406D+00
   p     1 1.00
  0.382700D+00  0.100000D+01
   p     1 1.00
  0.120900D+00  0.100000D+01
   d     1 1.00
  0.109700D+01  0.100000D+01
   d     1 1.00
  0.318000D+00  0.100000D+01
   f     1 1.00
  0.761000D+00  0.100000D+01
  
  3  0
   s    10 1.00
  0.823600D+04  0.531000D-03
  0.123500D+04  0.410800D-02
  0.280800D+03  0.210870D-01
  0.792700D+02  0.818530D-01
  0.255900D+02  0.234817D+00
  0.899700D+01  0.434401D+00
  0.331900D+01  0.346129D+00
  0.905900D+00  0.393780D-01
  0.364300D+00 -0.898300D-02
  0.128500D+00  0.238500D-02
   s    10 1.00
  0.823600D+04 -0.113000D-03
  0.123500D+04 -0.878000D-03
  0.280800D+03 -0.454000D-02
  0.792700D+02 -0.181330D-01
  0.255900D+02 -0.557600D-01
  0.899700D+01 -0.126895D+00
  0.331900D+01 -0.170352D+00
  0.905900D+00  0.140382D+00
  0.364300D+00  0.598684D+00
  0.128500D+00  0.395389D+00
   s     1 1.00
  0.905900D+00  0.100000D+01
   s     1 1.00
  0.364300D+00  0.100000D+01
   p     5 1.00
  0.187100D+02  0.140310D-01
  0.413300D+01  0.868660D-01
  0.120000D+01  0.290216D+00
  0.382700D+00  0.501008D+00
  0.120900D+00  0.343406D+00
   p     1 1.00
  0.382700D+00  0.100000D+01
   p     1 1.00
  0.120900D+00  0.100000D+01
   d     1 1.00
  0.109700D+01  0.100000D+01
   d     1 1.00
  0.318000D+00  0.100000D+01
   f     1 1.00
  0.761000D+00  0.100000D+01
  
  4  0
   s    10 1.00
  0.823600D+04  0.531000D-03
  0.123500D+04  0.410800D-02
  0.280800D+03  0.210870D-01
  0.792700D+02  0.818530D-01
  0.255900D+02  0.234817D+00
  0.899700D+01  0.434401D+00
  0.331900D+01  0.346129D+00
  0.905900D+00  0.393780D-01
  0.364300D+00 -0.898300D-02
  0.128500D+00  0.238500D-02
   s    10 1.00
  0.823600D+04 -0.113000D-03
  0.123500D+04 -0.878000D-03
  0.280800D+03 -0.454000D-02
  0.792700D+02 -0.181330D-01
  0.255900D+02 -0.557600D-01
  0.899700D+01 -0.126895D+00
  0.331900D+01 -0.170352D+00
  0.905900D+00  0.140382D+00
  0.364300D+00  0.598684D+00
  0.128500D+00  0.395389D+00
   s     1 1.00
  0.905900D+00  0.100000D+01
   s     1 1.00
  0.364300D+00  0.100000D+01
   p     5 1.00
  0.187100D+02  0.140310D-01
  0.413300D+01  0.868660D-01
  0.120000D+01  0.290216D+00
  0.382700D+00  0.501008D+00
  0.120900D+00  0.343406D+00
   p     1 1.00
  0.382700D+00  0.100000D+01
   p     1 1.00
  0.120900D+00  0.100000D+01
   d     1 1.00
  0.109700D+01  0.100000D+01
   d     1 1.00
  0.318000D+00  0.100000D+01
   f     1 1.00
  0.761000D+00  0.100000D+01
  
  5  0
   s    10 1.00
  0.823600D+04  0.531000D-03
  0.123500D+04  0.410800D-02
  0.280800D+03  0.210870D-01
  0.792700D+02  0.818530D-01
  0.255900D+02  0.234817D+00
  0.899700D+01  0.434401D+00
  0.331900D+01  0.346129D+00
  0.905900D+00  0.393780D-01
  0.364300D+00 -0.898300D-02
  0.128500D+00  0.238500D-02
   s    10 1.00
  0.823600D+04 -0.113000D-03
  0.123500D+04 -0.878000D-03
  0.280800D+03 -0.454000D-02
  0.792700D+02 -0.181330D-01
  0.255900D+02 -0.557600D-01
  0.899700D+01 -0.126895D+00
  0.331900D+01 -0.170352D+00
  0.905900D+00  0.140382D+00
  0.364300D+00  0.598684D+00
  0.128500D+00  0.395389D+00
   s     1 1.00
  0.905900D+00  0.100000D+01
   s     1 1.00
  0.364300D+00  0.100000D+01
   p     5 1.00
  0.187100D+02  0.140310D-01
  0.413300D+01  0.868660D-01
  0.120000D+01  0.290216D+00
  0.382700D+00  0.501008D+00
  0.120900D+00  0.343406D+00
   p     1 1.00
  0.382700D+00  0.100000D+01
   p     1 1.00
  0.120900D+00  0.100000D+01
   d     1 1.00
  0.109700D+01  0.100000D+01
   d     1 1.00
  0.318000D+00  0.100000D+01
   f     1 1.00
  0.761000D+00  0.100000D+01
  
  6  0
   s    10 1.00
  0.823600D+04  0.531000D-03
  0.123500D+04  0.410800D-02
  0.280800D+03  0.210870D-01
  0.792700D+02  0.818530D-01
  0.255900D+02  0.234817D+00
  0.899700D+01  0.434401D+00
  0.331900D+01  0.346129D+00
  0.905900D+00  0.393780D-01
  0.364300D+00 -0.898300D-02
  0.128500D+00  0.238500D-02
   s    10 1.00
  0.823600D+04 -0.113000D-03
  0.123500D+04 -0.878000D-03
  0.280800D+03 -0.454000D-02
  0.792700D+02 -0.181330D-01
  0.255900D+02 -0.557600D-01
  0.899700D+01 -0.126895D+00
  0.331900D+01 -0.170352D+00
  0.905900D+00  0.140382D+00
  0.364300D+00  0.598684D+00
  0.128500D+00  0.395389D+00
   s     1 1.00
  0.905900D+00  0.100000D+01
   s     1 1.00
  0.364300D+00  0.100000D+01
   p     5 1.00
  0.187100D+02  0.140310D-01
  0.413300D+01  0.868660D-01
  0.120000D+01  0.290216D+00
  0.382700D+00  0.501008D+00
  0.120900D+00  0.343406D+00
   p     1 1.00
  0.382700D+00  0.100000D+01
   p     1 1.00
  0.120900D+00  0.100000D+01
   d     1 1.00
  0.109700D+01  0.100000D+01
   d     1 1.00
  0.318000D+00  0.100000D+01
   f     1 1.00
  0.761000D+00  0.100000D+01
  
  7  0
   s    10 1.00
  0.823600D+04  0.531000D-03
  0.123500D+04  0.410800D-02
  0.280800D+03  0.210870D-01
  0.792700D+02  0.818530D-01
  0.255900D+02  0.234817D+00
  0.899700D+01  0.434401D+00
  0.331900D+01  0.346129D+00
  0.905900D+00  0.393780D-01
  0.364300D+00 -0.898300D-02
  0.128500D+00  0.238500D-02
   s    10 1.00
  0.823600D+04 -0.113000D-03
  0.123500D+04 -0.878000D-03
  0.280800D+03 -0.454000D-02
  0.792700D+02 -0.181330D-01
  0.255900D+02 -0.557600D-01
  0.899700D+01 -0.126895D+00
  0.331900D+01 -0.170352D+00
  0.905900D+00  0.140382D+00
  0.364300D+00  0.598684D+00
  0.128500D+00  0.395389D+00
   s     1 1.00
  0.905900D+00  0.100000D+01
   s     1 1.00
  0.364300D+00  0.100000D+01
   p     5 1.00
  0.187100D+02  0.140310D-01
  0.413300D+01  0.868660D-01
  0.120000D+01  0.290216D+00
  0.382700D+00  0.501008D+00
  0.120900D+00  0.343406D+00
   p     1 1.00
  0.382700D+00  0.100000D+01
   p     1 1.00
  0.120900D+00  0.100000D+01
   d     1 1.00
  0.109700D+01  0.100000D+01
   d     1 1.00
  0.318000D+00  0.100000D+01
   f     1 1.00
  0.761000D+00  0.100000D+01
  
  8  0
   s     4 1.00
  0.130100D+02  0.196850D-01
  0.196200D+01  0.137977D+00
  0.444600D+00  0.478148D+00
  0.122000D+00  0.501240D+00
   s     1 1.00
  0.122000D+00  0.100000D+01
   p     1 1.00
  0.727000D+00  0.100000D+01
  
  9  0
   s     4 1.00
  0.130100D+02  0.196850D-01
  0.196200D+01  0.137977D+00
  0.444600D+00  0.478148D+00
  0.122000D+00  0.501240D+00
   s     1 1.00
  0.122000D+00  0.100000D+01
   p     1 1.00
  0.727000D+00  0.100000D+01
  
 10  0
   s     4 1.00
  0.130100D+02  0.196850D-01
  0.196200D+01  0.137977D+00
  0.444600D+00  0.478148D+00
  0.122000D+00  0.501240D+00
   s     1 1.00
  0.122000D+00  0.100000D+01
   p     1 1.00
  0.727000D+00  0.100000D+01
  
 11  0
   s     4 1.00
  0.130100D+02  0.196850D-01
  0.196200D+01  0.137977D+00
  0.444600D+00  0.478148D+00
  0.122000D+00  0.501240D+00
   s     1 1.00
  0.122000D+00  0.100000D+01
   p     1 1.00
  0.727000D+00  0.100000D+01
  
 12  0
   s     4 1.00
  0.130100D+02  0.196850D-01
  0.196200D+01  0.137977D+00
  0.444600D+00  0.478148D+00
  0.122000D+00  0.501240D+00
   s     1 1.00
  0.122000D+00  0.100000D+01
   p     1 1.00
  0.727000D+00  0.100000D+01
  
 13  0
   s     4 1.00
  0.130100D+02  0.196850D-01
  0.196200D+01  0.137977D+00
  0.444600D+00  0.478148D+00
  0.122000D+00  0.501240D+00
   s     1 1.00
  0.122000D+00  0.100000D+01
   p     1 1.00
  0.727000D+00  0.100000D+01
  
 14  0
   s     4 1.00
  0.130100D+02  0.196850D-01
  0.196200D+01  0.137977D+00
  0.444600D+00  0.478148D+00
  0.122000D+00  0.501240D+00
   s     1 1.00
  0.122000D+00  0.100000D+01
   p     1 1.00
  0.727000D+00  0.100000D+01
  
[MO]
 Sym= __1_a__
 Ene=  0.000000000000000E+000
 Spin= Alpha
 Occup=    2.00000000000000     
                     1  8.649030181589370E-005
                     2  0.998381805096795     
                     3 -4.061073688211780E-003
                     4  1.853229496528470E-003
                     5  6.447742552992390E-003
                     6  2.711819614879720E-003
                     7  5.515322868791580E-003
                     8  1.002833833215770E-010
                     9 -7.226134500701920E-004
                    10 -7.146368511755220E-004
                    11 -4.981258682836800E-011
                    12 -2.433706984777070E-003
                    13 -1.961435868185720E-003
                    14  1.260603142760760E-010
                    15 -2.805793685021401E-005
                    16 -4.610001664822170E-013
                    17 -1.184332291391050E-011
                    18 -1.480511530113436E-004
                    19 -5.955533390796500E-005
                    20  1.158302716727488E-004
                    21  1.533812166645280E-011
                    22  1.383197042114340E-010
                    23 -1.623246856145262E-004
                    24  4.681297580438280E-004
                    25  1.499186069822641E-010
                    26 -2.857758069803956E-006
                    27 -4.182158659132674E-005
                    28 -1.416225419868094E-010
                    29  1.556966555404050E-010
                    30  3.336863073610652E-005
                    31 -9.849311243290323E-005
                    32 -2.805031315760090E-004
                    33  4.734249871569410E-005
                    34  3.070018656131450E-004
                    35 -1.034365716453310E-004
                    36 -8.836131464111010E-005
                    37 -1.843427971067550E-003
                    38  1.973422075992700E-010
                    39  3.427163523158560E-004
                    40  6.869291373729440E-005
                    41 -2.198076303073960E-010
                    42 -1.962085029402330E-003
                    43  4.734018626801710E-003
                    44  4.035721368375080E-011
                    45  1.345454051223340E-005
                    46  2.298851910415900E-012
                    47  4.648815267544870E-011
                    48 -9.511303435634040E-005
                    49  1.116634344841880E-005
                    50 -1.905160692811799E-004
                    51 -3.543730125879760E-011
                    52  1.068419382538140E-010
                    53 -9.763097744311800E-006
                    54  7.464018033814020E-004
                    55 -9.002944124293901E-011
                    56 -5.039846886421338E-006
                    57 -7.947902698219717E-005
                    58  7.473827123841421E-011
                    59  2.810744539606830E-011
                    60  1.942890758042297E-005
                    61 -1.341219210427385E-004
                    62 -5.190817242426110E-004
                    63 -1.921725355625220E-003
                    64 -9.715106153631690E-005
                    65  2.161519871342430E-003
                    66 -2.956537769073450E-004
                    67 -4.866698319808040E-005
                    68  1.757343560599780E-013
                    69  3.686642354307900E-004
                    70  8.570763347258420E-004
                    71 -4.774907856479790E-012
                    72 -1.782218434323010E-003
                    73  6.331733107091240E-004
                    74 -1.452038206882220E-010
                    75 -4.760146268897664E-005
                    76  1.275969760986540E-011
                    77  1.697026298660900E-011
                    78 -4.616450487419980E-005
                    79 -2.436097272518000E-005
                    80 -1.329682216201943E-004
                    81 -1.264254773527260E-011
                    82 -5.088063444457810E-011
                    83  1.587582582654912E-005
                    84 -2.414658141526310E-005
                    85  6.269099143798275E-011
                    86  9.325365155177298E-006
                    87 -4.571311013673551E-005
                    88 -5.117677602965540E-011
                    89 -2.068524878192260E-012
                    90 -2.894933694235341E-005
                    91 -1.562216714963860E-004
                    92 -1.755600369427500E-004
                    93 -5.245172569349010E-004
                    94  1.472289219541510E-004
                    95 -4.205745470373100E-005
                    96  5.950197789247850E-005
                    97 -1.112012615865710E-004
                    98  8.307145629144940E-012
                    99  3.355784682527770E-004
                   100  3.623880492830870E-004
                   101  1.246350221209210E-011
                   102  6.035988275994880E-004
                   103 -1.646056552752740E-003
                   104 -1.270087130606980E-010
                   105 -1.461853885808008E-005
                   106 -5.935159277510110E-012
                   107  2.258677681944250E-011
                   108 -3.472584113075740E-005
                   109 -1.133152032183990E-005
                   110  7.285012378672146E-005
                   111  8.489569824989590E-012
                   112 -1.004222821944630E-010
                   113 -1.494603550410482E-004
                   114  1.138162134562980E-004
                   115  4.516836258706451E-011
                   116 -1.760195300795762E-005
                   117 -2.168533025710122E-005
                   118 -4.304862423817000E-011
                   119 -4.369456952664230E-012
                   120 -7.939339376858189E-006
                   121 -4.474595275577342E-005
                   122 -2.405043714027040E-004
                   123 -6.703422049418090E-004
                   124  1.714748798951500E-004
                   125  2.821032385739370E-004
                   126 -3.921488880095700E-005
                   127 -2.046509926704350E-004
                   128 -1.467625253397510E-011
                   129  2.341839439225900E-004
                   130  6.342628002566671E-004
                   131  4.787707056068770E-012
                   132  4.358840710824610E-004
                   133  1.861330715557040E-003
                   134  1.363246800579520E-010
                   135  1.539031802458424E-005
                   136  8.409700009517860E-012
                   137  3.667885463628610E-010
                   138  4.893400983362280E-005
                   139 -5.101257437097430E-006
                   140  2.010110306168055E-004
                   141  2.739278658353610E-011
                   142 -2.577517952913580E-010
                   143  3.884774775472260E-004
                   144  1.979555029205890E-004
                   145 -2.091334821970464E-012
                   146 -1.233817902442118E-005
                   147 -6.251133512753968E-005
                   148  1.468556788249176E-011
                   149  9.583807633453389E-012
                   150 -9.436520517416581E-006
                   151 -5.553733319946076E-005
                   152 -1.340932761615260E-004
                   153 -4.214332160256510E-004
                   154  5.609931532894860E-005
                   155  2.033134319601360E-004
                   156  8.262229289231759E-006
                   157 -6.843493419839040E-006
                   158 -2.958242294799890E-011
                   159 -1.225933003316310E-005
                   160  4.743280824504180E-005
                   161  8.131704448752990E-011
                   162  7.214438700369140E-004
                   163 -3.340712173874590E-004
                   164  1.077864139297530E-010
                   165  1.944611447540380E-006
                   166 -1.073205298872930E-011
                   167  2.781462116110580E-010
                   168  5.260676018202080E-006
                   169  1.316278289809020E-005
                   170  1.076087695107560E-004
                   171 -3.143557662181670E-011
                   172 -1.954589203035610E-010
                   173  4.819883740359440E-005
                   174  3.877590894454620E-005
                   175  6.441730956662233E-012
                   176  4.431149006337099E-006
                   177 -1.422406263418942E-005
                   178  1.404581258865000E-011
                   179 -1.822045918517040E-011
                   180 -2.520484177319462E-005
                   181 -3.081223274321126E-005
                   182 -1.361962176708610E-004
                   183 -4.060055154579080E-004
                   184  3.088172132991850E-005
                   185  2.156811404329400E-004
                   186 -4.391428900354130E-005
                   187 -5.475616963104550E-005
                   188  1.435642576267850E-011
                   189  2.487169274590450E-004
                   190  1.133589512980300E-004
                   191 -1.203436560744130E-011
                   192  1.248187545744730E-003
                   193 -3.038790929063380E-004
                   194 -7.052075859744880E-011
                   195  6.146254044005981E-007
                   196  2.311033633929190E-012
                   197  7.447913740385749E-012
                   198 -2.559509727557440E-006
                   199  3.899254234483410E-006
                   200 -6.914833294623837E-006
                   201 -3.077835898807410E-011
                   202  1.050095240941850E-010
                   203 -6.535848474300040E-005
                   204 -1.893282947908830E-004
                   205 -4.381414126933925E-011
                   206 -8.985704255958976E-006
                   207 -3.750512597647732E-006
                   208 -3.101672026230580E-011
                   209  3.579783351101310E-013
                   210  7.677149371881169E-006
                   211 -3.748120134178535E-006
                   212 -2.310573239629550E-005
                   213  1.205537024378440E-004
                   214  1.123187366560460E-005
                   215  2.627765331932710E-005
                   216 -2.338160021930570E-013
                   217 -1.229948381597490E-003
                   218 -3.985962046020640E-004
                   219 -2.013769684088580E-004
                   220  3.736827598011720E-005
                   221  2.581121734447430E-011
                   222 -1.549482470581980E-004
                   223 -6.571924801947530E-004
                   224  2.124391136322160E-005
                   225 -5.869849775238990E-005
                   226 -5.006021979878620E-012
                   227  8.213366024352490E-005
                   228 -6.172467919134750E-004
                   229 -4.261167917994370E-005
                   230 -1.614849279382630E-005
                   231 -1.174457059841460E-011
                   232  5.157943637095850E-005
                   233 -4.424692480628260E-004
                   234  1.452286777493400E-005
                   235 -4.070268043108640E-006
                   236  1.575856799448270E-011
                   237  3.944354041226930E-005
                   238 -3.579159659115850E-004
                   239 -1.022685074025900E-005
                   240 -3.674767671258370E-006
                   241  8.697496328560120E-012
                   242 -6.779321090765430E-005
                   243  8.268743553737760E-005
                   244  6.514917962180870E-008
                   245  2.855367812482140E-005
                   246 -3.769982497327430E-011
 Sym= __2_a__
 Ene=  0.000000000000000E+000
 Spin= Alpha
 Occup=    2.00000000000000     
                     1  4.872707990169730E-005
                     2  3.340437498661410E-004
                     3 -2.778004540017490E-003
                     4 -1.229985434959880E-004
                     5 -1.320693700985160E-003
                     6  2.740009237146080E-004
                     7 -2.676476279200060E-003
                     8 -5.743248370793870E-010
                     9  3.495728557445930E-005
                    10  1.107552017163150E-004
                    11  3.007491672548530E-010
                    12  5.616052290786080E-005
                    13  3.148412129548160E-004
                    14 -9.291892281534139E-011
                    15 -2.806521032548027E-005
                    16 -4.648412483569160E-013
                    17  4.557941038629830E-011
                    18  3.974842028266980E-005
                    19 -1.954046774105790E-005
                    20  1.101263526376994E-004
                    21 -9.673400098520220E-012
                    22 -4.690307785042690E-010
                    23 -1.271655063530690E-004
                    24  1.522133618511770E-004
                    25 -3.755523922079483E-010
                    26  1.802447220374293E-005
                    27 -9.552857031340155E-005
                    28  4.559297598529780E-010
                    29 -6.926476291364219E-011
                    30  6.640018265420083E-005
                    31 -1.478356700230830E-004
                    32  -1.00090140267447     
                    33 -9.072921419303910E-003
                    34 -2.762459287060820E-003
                    35  8.060496331103910E-003
                    36  1.795530736494240E-004
                    37  3.089253688423510E-003
                    38 -3.286106057116050E-010
                    39  9.248234172823689E-005
                    40 -1.815901525745410E-004
                    41  5.762117434918260E-010
                    42  1.487828657107740E-004
                    43 -3.965862884700280E-003
                    44  3.404936084210640E-010
                    45  5.294285268630101E-004
                    46 -3.217720011167440E-011
                    47 -1.146907972338790E-010
                    48  1.944963286192166E-004
                    49 -3.304185406014320E-005
                    50 -5.499402564623679E-004
                    51 -1.116575531174680E-010
                    52 -3.220089324837650E-010
                    53  6.609610403562779E-004
                    54  3.879963947026180E-004
                    55  2.184849043102948E-010
                    56 -1.125564568344678E-005
                    57 -9.933496174449147E-005
                    58 -2.870840089666080E-010
                    59  2.785098250993080E-011
                    60  2.578476458291890E-005
                    61 -3.823733123238962E-004
                    62 -1.231587161809450E-002
                    63  2.009782588051910E-003
                    64  2.404626860754560E-004
                    65 -2.707534523409810E-003
                    66 -4.526697462875730E-005
                    67 -8.438215620775590E-005
                    68  5.810300395958520E-011
                    69 -5.350568750672700E-004
                    70 -1.494760059489030E-004
                    71 -1.943597756086470E-010
                    72  2.093847388579410E-003
                    73 -2.746077746291340E-004
                    74 -3.380884490969760E-010
                    75 -3.350908596623380E-005
                    76  1.130866029811260E-011
                    77 -5.680198817200050E-012
                    78  3.294369529813180E-006
                    79 -3.078595730371480E-006
                    80  4.295353129073695E-004
                    81 -1.551899294476890E-010
                    82 -8.687545588235730E-011
                    83  6.523604943022200E-004
                    84  2.613500729056300E-004
                    85 -4.673765432581305E-011
                    86 -2.815196783934931E-005
                    87  5.854915283037167E-005
                    88  1.829022547063924E-011
                    89 -3.502729950980310E-011
                    90 -4.210013733177647E-005
                    91 -1.486566658913566E-004
                    92 -1.512492935550690E-002
                    93  2.067279278435080E-003
                    94  2.991221078637010E-004
                    95 -3.164911446964080E-003
                    96 -1.347659302988950E-004
                    97 -1.301877040418340E-004
                    98  1.401824814424940E-011
                    99  9.154341426557840E-004
                   100 -2.534591976545310E-005
                   101 -1.748028206029410E-010
                   102 -1.702473206550700E-003
                   103  1.797141387812090E-007
                   104 -3.537189764091360E-010
                   105 -2.384687447382593E-005
                   106 -3.364221904038990E-012
                   107 -1.220268009575290E-013
                   108  5.756043038703000E-006
                   109 -4.719856986782700E-006
                   110  4.211411537953865E-004
                   111  1.293895722121450E-010
                   112 -1.728949455028960E-010
                   113  3.943259762456880E-004
                   114 -2.431574212362930E-004
                   115 -3.760461111098699E-011
                   116  3.088711488828076E-005
                   117  7.265201118280008E-005
                   118  5.654675216273400E-012
                   119  6.018819338172180E-011
                   120  3.123063011573652E-006
                   121 -1.331880764697840E-004
                   122  8.691506456918170E-005
                   123  6.773440465625500E-004
                   124 -2.302169927950940E-004
                   125  1.314725224543870E-004
                   126 -2.437767157186470E-006
                   127  3.708082908189050E-004
                   128 -2.573937020922270E-010
                   129  8.005560293116980E-005
                   130 -6.165179668725350E-004
                   131  5.842978386805400E-010
                   132 -3.765491783643500E-004
                   133 -9.050375340589530E-004
                   134  7.885615467823640E-010
                   135 -1.855538540309432E-005
                   136 -6.347995551685960E-011
                   137  3.888304778474410E-011
                   138 -4.062901036408440E-006
                   139 -4.314891581199540E-005
                   140 -1.299269990686553E-004
                   141  7.816700218175710E-010
                   142 -6.456651554658650E-011
                   143 -2.535108716667100E-004
                   144  1.092484012701310E-004
                   145  1.282460590613739E-010
                   146 -9.112486441214414E-006
                   147  3.700686174912301E-005
                   148  1.096791785639010E-010
                   149  8.810903174300310E-011
                   150  4.356999448589834E-005
                   151 -3.677097232367652E-005
                   152 -7.916306754475020E-005
                   153  6.508172097897130E-004
                   154 -2.305529548249880E-004
                   155  5.057649889820280E-005
                   156  3.479885910087170E-005
                   157  3.988097685378570E-004
                   158 -2.517644153365400E-010
                   159 -1.308256813409160E-004
                   160 -5.516642731976210E-004