[Molden Format]
[Atoms] AU
  N     1    7    -0.0517765700   -4.3089844900    0.0000000100        
  C     2    6     0.0647538100   -1.7783246500   -0.0000000200        
  C     3    6    -2.2678766300   -0.3983327800   -0.0000000200        
  C     4    6     2.3593468100   -0.3388541700   -0.0000000400        
  C     5    6    -2.2678819000    2.1847686800   -0.0000000100        
  C     6    6     2.3086640900    2.2443344000    0.0000000100        
  C     7    6     0.0059438200    3.5355861800    0.0000000100        
  H     8    1    -3.6006927000   -6.8181930200    0.0000000700        
  H     9    1     1.7509000100   -5.0388157400    0.0000000100        
  H    10    1    -3.9964914400   -1.4515209000   -0.0000000400        
  H    11    1     4.1294359000   -1.3321065800   -0.0000000400        
  H    12    1    -4.0272855100    3.1961068700   -0.0000000300        
  H    13    1     4.0451721000    3.2943620000    0.0000000400        
  H    14    1    -0.0194439900    5.5632985900    0.0000000400        
[5D]
[7F]
[GTO]
  1  0
   s    12 1.00
  0.114200D+05  0.172695D-04
  0.171200D+04  0.134411D-03
  0.389300D+03  0.694561D-03
  0.110000D+03  0.278531D-02
  0.355700D+02  0.863457D-02
  0.125400D+02  0.199805D-01
  0.464400D+01  0.262908D-01
  0.129300D+01 -0.243845D-01
  0.511800D+00 -0.924934D-01
  0.178700D+00 -0.339683D+00
  0.246240D-01  0.345111D+00
  0.112530D-01  0.752750D+00
   s    10 1.00
  0.114200D+05  0.523000D-03
  0.171200D+04  0.404500D-02
  0.389300D+03  0.207750D-01
  0.110000D+03  0.807269D-01
  0.355700D+02  0.233074D+00
  0.125400D+02  0.433501D+00
  0.464400D+01  0.347472D+00
  0.129300D+01  0.412620D-01
  0.511800D+00 -0.850799D-02
  0.178700D+00  0.238400D-02
   s    10 1.00
  0.114200D+05 -0.115000D-03
  0.171200D+04 -0.895000D-03
  0.389300D+03 -0.462400D-02
  0.110000D+03 -0.185280D-01
  0.355700D+02 -0.573390D-01
  0.125400D+02 -0.132076D+00
  0.464400D+01 -0.172510D+00
  0.129300D+01  0.151814D+00
  0.511800D+00  0.599944D+00
  0.178700D+00  0.387462D+00
   s     1 1.00
  0.129300D+01  0.100000D+01
   s     1 1.00
  0.178700D+00  0.100000D+01
   p     5 1.00
  0.266300D+02  0.146700D-01
  0.594800D+01  0.917640D-01
  0.174200D+01  0.298683D+00
  0.555000D+00  0.498487D+00
  0.172500D+00  0.337023D+00
   p     1 1.00
  0.174200D+01  0.100000D+01
   p     1 1.00
  0.555000D+00  0.100000D+01
   d     1 1.00
  0.165400D+01  0.100000D+01
   d     1 1.00
  0.469000D+00  0.100000D+01
   f     1 1.00
  0.109300D+01  0.100000D+01
  
  2  0
   s    10 1.00
  0.823600D+04  0.531000D-03
  0.123500D+04  0.410800D-02
  0.280800D+03  0.210870D-01
  0.792700D+02  0.818530D-01
  0.255900D+02  0.234817D+00
  0.899700D+01  0.434401D+00
  0.331900D+01  0.346129D+00
  0.905900D+00  0.393780D-01
  0.364300D+00 -0.898300D-02
  0.128500D+00  0.238500D-02
   s    10 1.00
  0.823600D+04 -0.113000D-03
  0.123500D+04 -0.878000D-03
  0.280800D+03 -0.454000D-02
  0.792700D+02 -0.181330D-01
  0.255900D+02 -0.557600D-01
  0.899700D+01 -0.126895D+00
  0.331900D+01 -0.170352D+00
  0.905900D+00  0.140382D+00
  0.364300D+00  0.598684D+00
  0.128500D+00  0.395389D+00
   s     1 1.00
  0.905900D+00  0.100000D+01
   s     1 1.00
  0.364300D+00  0.100000D+01
   p     5 1.00
  0.187100D+02  0.140310D-01
  0.413300D+01  0.868660D-01
  0.120000D+01  0.290216D+00
  0.382700D+00  0.501008D+00
  0.120900D+00  0.343406D+00
   p     1 1.00
  0.382700D+00  0.100000D+01
   p     1 1.00
  0.120900D+00  0.100000D+01
   d     1 1.00
  0.109700D+01  0.100000D+01
   d     1 1.00
  0.318000D+00  0.100000D+01
   f     1 1.00
  0.761000D+00  0.100000D+01
  
  3  0
   s    10 1.00
  0.823600D+04  0.531000D-03
  0.123500D+04  0.410800D-02
  0.280800D+03  0.210870D-01
  0.792700D+02  0.818530D-01
  0.255900D+02  0.234817D+00
  0.899700D+01  0.434401D+00
  0.331900D+01  0.346129D+00
  0.905900D+00  0.393780D-01
  0.364300D+00 -0.898300D-02
  0.128500D+00  0.238500D-02
   s    10 1.00
  0.823600D+04 -0.113000D-03
  0.123500D+04 -0.878000D-03
  0.280800D+03 -0.454000D-02
  0.792700D+02 -0.181330D-01
  0.255900D+02 -0.557600D-01
  0.899700D+01 -0.126895D+00
  0.331900D+01 -0.170352D+00
  0.905900D+00  0.140382D+00
  0.364300D+00  0.598684D+00
  0.128500D+00  0.395389D+00
   s     1 1.00
  0.905900D+00  0.100000D+01
   s     1 1.00
  0.364300D+00  0.100000D+01
   p     5 1.00
  0.187100D+02  0.140310D-01
  0.413300D+01  0.868660D-01
  0.120000D+01  0.290216D+00
  0.382700D+00  0.501008D+00
  0.120900D+00  0.343406D+00
   p     1 1.00
  0.382700D+00  0.100000D+01
   p     1 1.00
  0.120900D+00  0.100000D+01
   d     1 1.00
  0.109700D+01  0.100000D+01
   d     1 1.00
  0.318000D+00  0.100000D+01
   f     1 1.00
  0.761000D+00  0.100000D+01
  
  4  0
   s    10 1.00
  0.823600D+04  0.531000D-03
  0.123500D+04  0.410800D-02
  0.280800D+03  0.210870D-01
  0.792700D+02  0.818530D-01
  0.255900D+02  0.234817D+00
  0.899700D+01  0.434401D+00
  0.331900D+01  0.346129D+00
  0.905900D+00  0.393780D-01
  0.364300D+00 -0.898300D-02
  0.128500D+00  0.238500D-02
   s    10 1.00
  0.823600D+04 -0.113000D-03
  0.123500D+04 -0.878000D-03
  0.280800D+03 -0.454000D-02
  0.792700D+02 -0.181330D-01
  0.255900D+02 -0.557600D-01
  0.899700D+01 -0.126895D+00
  0.331900D+01 -0.170352D+00
  0.905900D+00  0.140382D+00
  0.364300D+00  0.598684D+00
  0.128500D+00  0.395389D+00
   s     1 1.00
  0.905900D+00  0.100000D+01
   s     1 1.00
  0.364300D+00  0.100000D+01
   p     5 1.00
  0.187100D+02  0.140310D-01
  0.413300D+01  0.868660D-01
  0.120000D+01  0.290216D+00
  0.382700D+00  0.501008D+00
  0.120900D+00  0.343406D+00
   p     1 1.00
  0.382700D+00  0.100000D+01
   p     1 1.00
  0.120900D+00  0.100000D+01
   d     1 1.00
  0.109700D+01  0.100000D+01
   d     1 1.00
  0.318000D+00  0.100000D+01
   f     1 1.00
  0.761000D+00  0.100000D+01
  
  5  0
   s    10 1.00
  0.823600D+04  0.531000D-03
  0.123500D+04  0.410800D-02
  0.280800D+03  0.210870D-01
  0.792700D+02  0.818530D-01
  0.255900D+02  0.234817D+00
  0.899700D+01  0.434401D+00
  0.331900D+01  0.346129D+00
  0.905900D+00  0.393780D-01
  0.364300D+00 -0.898300D-02
  0.128500D+00  0.238500D-02
   s    10 1.00
  0.823600D+04 -0.113000D-03
  0.123500D+04 -0.878000D-03
  0.280800D+03 -0.454000D-02
  0.792700D+02 -0.181330D-01
  0.255900D+02 -0.557600D-01
  0.899700D+01 -0.126895D+00
  0.331900D+01 -0.170352D+00
  0.905900D+00  0.140382D+00
  0.364300D+00  0.598684D+00
  0.128500D+00  0.395389D+00
   s     1 1.00
  0.905900D+00  0.100000D+01
   s     1 1.00
  0.364300D+00  0.100000D+01
   p     5 1.00
  0.187100D+02  0.140310D-01
  0.413300D+01  0.868660D-01
  0.120000D+01  0.290216D+00
  0.382700D+00  0.501008D+00
  0.120900D+00  0.343406D+00
   p     1 1.00
  0.382700D+00  0.100000D+01
   p     1 1.00
  0.120900D+00  0.100000D+01
   d     1 1.00
  0.109700D+01  0.100000D+01
   d     1 1.00
  0.318000D+00  0.100000D+01
   f     1 1.00
  0.761000D+00  0.100000D+01
  
  6  0
   s    10 1.00
  0.823600D+04  0.531000D-03
  0.123500D+04  0.410800D-02
  0.280800D+03  0.210870D-01
  0.792700D+02  0.818530D-01
  0.255900D+02  0.234817D+00
  0.899700D+01  0.434401D+00
  0.331900D+01  0.346129D+00
  0.905900D+00  0.393780D-01
  0.364300D+00 -0.898300D-02
  0.128500D+00  0.238500D-02
   s    10 1.00
  0.823600D+04 -0.113000D-03
  0.123500D+04 -0.878000D-03
  0.280800D+03 -0.454000D-02
  0.792700D+02 -0.181330D-01
  0.255900D+02 -0.557600D-01
  0.899700D+01 -0.126895D+00
  0.331900D+01 -0.170352D+00
  0.905900D+00  0.140382D+00
  0.364300D+00  0.598684D+00
  0.128500D+00  0.395389D+00
   s     1 1.00
  0.905900D+00  0.100000D+01
   s     1 1.00
  0.364300D+00  0.100000D+01
   p     5 1.00
  0.187100D+02  0.140310D-01
  0.413300D+01  0.868660D-01
  0.120000D+01  0.290216D+00
  0.382700D+00  0.501008D+00
  0.120900D+00  0.343406D+00
   p     1 1.00
  0.382700D+00  0.100000D+01
   p     1 1.00
  0.120900D+00  0.100000D+01
   d     1 1.00
  0.109700D+01  0.100000D+01
   d     1 1.00
  0.318000D+00  0.100000D+01
   f     1 1.00
  0.761000D+00  0.100000D+01
  
  7  0
   s    10 1.00
  0.823600D+04  0.531000D-03
  0.123500D+04  0.410800D-02
  0.280800D+03  0.210870D-01
  0.792700D+02  0.818530D-01
  0.255900D+02  0.234817D+00
  0.899700D+01  0.434401D+00
  0.331900D+01  0.346129D+00
  0.905900D+00  0.393780D-01
  0.364300D+00 -0.898300D-02
  0.128500D+00  0.238500D-02
   s    10 1.00
  0.823600D+04 -0.113000D-03
  0.123500D+04 -0.878000D-03
  0.280800D+03 -0.454000D-02
  0.792700D+02 -0.181330D-01
  0.255900D+02 -0.557600D-01
  0.899700D+01 -0.126895D+00
  0.331900D+01 -0.170352D+00
  0.905900D+00  0.140382D+00
  0.364300D+00  0.598684D+00
  0.128500D+00  0.395389D+00
   s     1 1.00
  0.905900D+00  0.100000D+01
   s     1 1.00
  0.364300D+00  0.100000D+01
   p     5 1.00
  0.187100D+02  0.140310D-01
  0.413300D+01  0.868660D-01
  0.120000D+01  0.290216D+00
  0.382700D+00  0.501008D+00
  0.120900D+00  0.343406D+00
   p     1 1.00
  0.382700D+00  0.100000D+01
   p     1 1.00
  0.120900D+00  0.100000D+01
   d     1 1.00
  0.109700D+01  0.100000D+01
   d     1 1.00
  0.318000D+00  0.100000D+01
   f     1 1.00
  0.761000D+00  0.100000D+01
  
  8  0
   s     4 1.00
  0.130100D+02  0.196850D-01
  0.196200D+01  0.137977D+00
  0.444600D+00  0.478148D+00
  0.122000D+00  0.501240D+00
   s     1 1.00
  0.122000D+00  0.100000D+01
   p     1 1.00
  0.727000D+00  0.100000D+01
  
  9  0
   s     4 1.00
  0.130100D+02  0.196850D-01
  0.196200D+01  0.137977D+00
  0.444600D+00  0.478148D+00
  0.122000D+00  0.501240D+00
   s     1 1.00
  0.122000D+00  0.100000D+01
   p     1 1.00
  0.727000D+00  0.100000D+01
  
 10  0
   s     4 1.00
  0.130100D+02  0.196850D-01
  0.196200D+01  0.137977D+00
  0.444600D+00  0.478148D+00
  0.122000D+00  0.501240D+00
   s     1 1.00
  0.122000D+00  0.100000D+01
   p     1 1.00
  0.727000D+00  0.100000D+01
  
 11  0
   s     4 1.00
  0.130100D+02  0.196850D-01
  0.196200D+01  0.137977D+00
  0.444600D+00  0.478148D+00
  0.122000D+00  0.501240D+00
   s     1 1.00
  0.122000D+00  0.100000D+01
   p     1 1.00
  0.727000D+00  0.100000D+01
  
 12  0
   s     4 1.00
  0.130100D+02  0.196850D-01
  0.196200D+01  0.137977D+00
  0.444600D+00  0.478148D+00
  0.122000D+00  0.501240D+00
   s     1 1.00
  0.122000D+00  0.100000D+01
   p     1 1.00
  0.727000D+00  0.100000D+01
  
 13  0
   s     4 1.00
  0.130100D+02  0.196850D-01
  0.196200D+01  0.137977D+00
  0.444600D+00  0.478148D+00
  0.122000D+00  0.501240D+00
   s     1 1.00
  0.122000D+00  0.100000D+01
   p     1 1.00
  0.727000D+00  0.100000D+01
  
 14  0
   s     4 1.00
  0.130100D+02  0.196850D-01
  0.196200D+01  0.137977D+00
  0.444600D+00  0.478148D+00
  0.122000D+00  0.501240D+00
   s     1 1.00
  0.122000D+00  0.100000D+01
   p     1 1.00
  0.727000D+00  0.100000D+01
  
[MO]
 Sym= __1_A__
 Ene=  0.000000000000000E+000
 Spin= Alpha
 Occup=    2.00000000000000     
                     1  8.649030181581800E-005
                     2  0.998381805096795     
                     3 -4.061073688214909E-003
                     4  1.853229496528560E-003
                     5  6.447742552993166E-003
                     6  2.711819614877584E-003
                     7  5.515322868789439E-003
                     8  1.002833833210400E-010
                     9 -7.226134500703039E-004
                    10 -7.146368511756023E-004
                    11 -4.981258682801667E-011
                    12 -2.433706984777014E-003
                    13 -1.961435868185837E-003
                    14  1.260603142757092E-010
                    15 -2.805793685013505E-005
                    16 -4.610001664810956E-013
                    17 -1.184332291383624E-011
                    18 -1.480511530113005E-004
                    19 -5.955533390800633E-005
                    20  1.158302716729780E-004
                    21  1.533812166644541E-011
                    22  1.383197042104322E-010
                    23 -1.623246856141405E-004
                    24  4.681297580434700E-004
                    25  1.499186069815791E-010
                    26 -2.857758069775200E-006
                    27 -4.182158659124271E-005
                    28 -1.416225419859604E-010
                    29  1.556966555393925E-010
                    30  3.336863073605804E-005
                    31 -9.849311243284635E-005
                    32 -2.805031315552210E-004
                    33  4.734249869442638E-005
                    34  3.070018656133418E-004
                    35 -1.034365716437734E-004
                    36 -8.836131464938355E-005
                    37 -1.843427971071262E-003
                    38  1.973422075988628E-010
                    39  3.427163523161650E-004
                    40  6.869291373674011E-005
                    41 -2.198076303062122E-010
                    42 -1.962085029399420E-003
                    43  4.734018626799662E-003
                    44  4.035721368350476E-011
                    45  1.345454051253193E-005
                    46  2.298851910395191E-012
                    47  4.648815267533006E-011
                    48 -9.511303435678593E-005
                    49  1.116634344824014E-005
                    50 -1.905160692804616E-004
                    51 -3.543730125852847E-011
                    52  1.068419382528049E-010
                    53 -9.763097744660598E-006
                    54  7.464018033810387E-004
                    55 -9.002944124252060E-011
                    56 -5.039846886342092E-006
                    57 -7.947902698214008E-005
                    58  7.473827123790290E-011
                    59  2.810744539597640E-011
                    60  1.942890758042171E-005
                    61 -1.341219210430791E-004
                    62 -5.190817242431491E-004
                    63 -1.921725355627200E-003
                    64 -9.715106153640109E-005
                    65  2.161519871342269E-003
                    66 -2.956537769059246E-004
                    67 -4.866698318670997E-005
                    68  1.757343560225390E-013
                    69  3.686642354304155E-004
                    70  8.570763347242264E-004
                    71 -4.774907856234054E-012
                    72 -1.782218434320319E-003
                    73  6.331733107056393E-004
                    74 -1.452038206877959E-010
                    75 -4.760146268893283E-005
                    76  1.275969760984192E-011
                    77  1.697026298659927E-011
                    78 -4.616450487458870E-005
                    79 -2.436097272522675E-005
                    80 -1.329682216202057E-004
                    81 -1.264254773510269E-011
                    82 -5.088063444442586E-011
                    83  1.587582582655531E-005
                    84 -2.414658141484768E-005
                    85  6.269099143797814E-011
                    86  9.325365155186012E-006
                    87 -4.571311013679931E-005
                    88 -5.117677602971978E-011
                    89 -2.068524878148069E-012
                    90 -2.894933694235042E-005
                    91 -1.562216714963564E-004
                    92 -1.755600369422372E-004
                    93 -5.245172569414206E-004
                    94  1.472289219541502E-004
                    95 -4.205745470333241E-005
                    96  5.950197789717973E-005
                    97 -1.112012615646882E-004
                    98  8.307145629189724E-012
                    99  3.355784682527115E-004
                   100  3.623880492807174E-004
                   101  1.246350221226001E-011
                   102  6.035988275969027E-004
                   103 -1.646056552757198E-003
                   104 -1.270087130604568E-010
                   105 -1.461853885797119E-005
                   106 -5.935159277505592E-012
                   107  2.258677681941004E-011
                   108 -3.472584113136658E-005
                   109 -1.133152032210918E-005
                   110  7.285012378683599E-005
                   111  8.489569824939311E-012
                   112 -1.004222821940243E-010
                   113 -1.494603550408538E-004
                   114  1.138162134554872E-004
                   115  4.516836258707264E-011
                   116 -1.760195300802713E-005
                   117 -2.168533025726180E-005
                   118 -4.304862423823662E-011
                   119 -4.369456952705258E-012
                   120 -7.939339376812427E-006
                   121 -4.474595275570374E-005
                   122 -2.405043714026509E-004
                   123 -6.703422049376926E-004
                   124  1.714748798949750E-004
                   125  2.821032385736914E-004
                   126 -3.921488880066086E-005
                   127 -2.046509926791026E-004
                   128 -1.467625253404299E-011
                   129  2.341839439222925E-004
                   130  6.342628002568761E-004
                   131  4.787707056039759E-012
                   132  4.358840710816323E-004
                   133  1.861330715556209E-003
                   134  1.363246800575327E-010
                   135  1.539031802450394E-005
                   136  8.409700009524739E-012
                   137  3.667885463628535E-010
                   138  4.893400983335936E-005
                   139 -5.101257437109026E-006
                   140  2.010110306166683E-004
                   141  2.739278658344218E-011
                   142 -2.577517952911495E-010
                   143  3.884774775467092E-004
                   144  1.979555029204707E-004
                   145 -2.091334821991585E-012
                   146 -1.233817902442534E-005
                   147 -6.251133512745684E-005
                   148  1.468556788252645E-011
                   149  9.583807633457688E-012
                   150 -9.436520517415493E-006
                   151 -5.553733319938448E-005
                   152 -1.340932761619092E-004
                   153 -4.214332160183454E-004
                   154  5.609931532867155E-005
                   155  2.033134319600801E-004
                   156  8.262229287152961E-006
                   157 -6.843493434782115E-006
                   158 -2.958242294838592E-011
                   159 -1.225933003269710E-005
                   160  4.743280824572247E-005
                   161  8.131704448717871E-011
                   162  7.214438700368056E-004
                   163 -3.340712173858162E-004
                   164  1.077864139295514E-010
                   165  1.944611447397624E-006
                   166 -1.073205298872518E-011
                   167  2.781462116110846E-010
                   168  5.260676017735538E-006
                   169  1.316278289793957E-005
                   170  1.076087695105070E-004
                   171 -3.143557662174732E-011
                   172 -1.954589203033063E-010
                   173  4.819883740306058E-005
                   174  3.877590894448249E-005
                   175  6.441730956608365E-012
                   176  4.431149006346714E-006
                   177 -1.422406263407437E-005
                   178  1.404581258869352E-011
                   179 -1.822045918514468E-011
                   180 -2.520484177315651E-005
                   181 -3.081223274305374E-005
                   182 -1.361962176707536E-004
                   183 -4.060055154587006E-004
                   184  3.088172132990092E-005
                   185  2.156811404328815E-004
                   186 -4.391428900345090E-005
                   187 -5.475616962899138E-005
                   188  1.435642576258526E-011
                   189  2.487169274589511E-004
                   190  1.133589512975977E-004
                   191 -1.203436560745775E-011
                   192  1.248187545743871E-003
                   193 -3.038790929050575E-004
                   194 -7.052075859709595E-011
                   195  6.146254043971669E-007
                   196  2.311033633920843E-012
                   197  7.447913740419038E-012
                   198 -2.559509727878228E-006
                   199  3.899254234433441E-006
                   200 -6.914833294438053E-006
                   201 -3.077835898802914E-011
                   202  1.050095240940173E-010
                   203 -6.535848474310805E-005
                   204 -1.893282947908839E-004
                   205 -4.381414126932662E-011
                   206 -8.985704255948059E-006
                   207 -3.750512597647469E-006
                   208 -3.101672026229794E-011
                   209  3.579783350881449E-013
                   210  7.677149371907182E-006
                   211 -3.748120134115723E-006
                   212 -2.310573239635480E-005
                   213  1.205537024375409E-004
                   214  1.123187366557583E-005
                   215  2.627765331929737E-005
                   216 -2.338160021925171E-013
                   217 -1.229948381599932E-003
                   218 -3.985962046012640E-004
                   219 -2.013769684086862E-004
                   220  3.736827597992942E-005
                   221  2.581121734420651E-011
                   222 -1.549482470668645E-004
                   223 -6.571924801910218E-004
                   224  2.124391136273690E-005
                   225 -5.869849775255009E-005
                   226 -5.006021979867650E-012
                   227  8.213366023423669E-005
                   228 -6.172467919091521E-004
                   229 -4.261167917927489E-005
                   230 -1.614849279386903E-005
                   231 -1.174457059837662E-011
                   232  5.157943636807371E-005
                   233 -4.424692480616454E-004
                   234  1.452286777478090E-005
                   235 -4.070268043129345E-006
                   236  1.575856799445005E-011
                   237  3.944354040524125E-005
                   238 -3.579159659095714E-004
                   239 -1.022685073990095E-005
                   240 -3.674767671244237E-006
                   241  8.697496328552393E-012
                   242 -6.779321090417285E-005
                   243  8.268743553688892E-005
                   244  6.514917961650542E-008
                   245  2.855367812465215E-005
                   246 -3.769982497324411E-011
 Sym= __2_A__
 Ene=  0.000000000000000E+000
 Spin= Alpha
 Occup=    2.00000000000000     
                     1  4.872707990163318E-005
                     2  3.340437498867122E-004
                     3 -2.778004540019437E-003
                     4 -1.229985434958809E-004
                     5 -1.320693700984833E-003
                     6  2.740009237119018E-004
                     7 -2.676476279202110E-003
                     8 -5.743248370816466E-010
                     9  3.495728557431659E-005
                    10  1.107552017162826E-004
                    11  3.007491672562246E-010
                    12  5.616052290798468E-005
                    13  3.148412129545450E-004
                    14 -9.291892281637021E-011
                    15 -2.806521032542990E-005
                    16 -4.648412483516769E-013
                    17  4.557941038653202E-011
                    18  3.974842028269468E-005
                    19 -1.954046774118054E-005
                    20  1.101263526378473E-004
                    21 -9.673400098584476E-012
                    22 -4.690307785071512E-010
                    23 -1.271655063528047E-004
                    24  1.522133618507398E-004
                    25 -3.755523922102742E-010
                    26  1.802447220377523E-005
                    27 -9.552857031335039E-005
                    28  4.559297598557282E-010
                    29 -6.926476291439599E-011
                    30  6.640018265414187E-005
                    31 -1.478356700230689E-004
                    32  -1.00090140267447     
                    33 -9.072921419317427E-003
                    34 -2.762459287060792E-003
                    35  8.060496331105312E-003
                    36  1.795530736314435E-004
                    37  3.089253688421519E-003
                    38 -3.286106057128278E-010
                    39  9.248234172850747E-005
                    40 -1.815901525749395E-004
                    41  5.762117434950140E-010
                    42  1.487828657163983E-004
                    43 -3.965862884700992E-003
                    44  3.404936084205797E-010
                    45  5.294285268632187E-004
                    46 -3.217720011170834E-011
                    47 -1.146907972343729E-010
                    48  1.944963286191092E-004
                    49 -3.304185406067281E-005
                    50 -5.499402564621022E-004
                    51 -1.116575531172161E-010
                    52 -3.220089324867212E-010
                    53  6.609610403560410E-004
                    54  3.879963947019309E-004
                    55  2.184849043115561E-010
                    56 -1.125564568331575E-005
                    57 -9.933496174444279E-005
                    58 -2.870840089682482E-010
                    59  2.785098251011178E-011
                    60  2.578476458286590E-005
                    61 -3.823733123241514E-004
                    62 -1.231587161767933E-002
                    63  2.009782588060345E-003
                    64  2.404626860765847E-004
                    65 -2.707534523413795E-003
                    66 -4.526697462257766E-005
                    67 -8.438215620866089E-005
                    68  5.810300395956973E-011
                    69 -5.350568750679280E-004
                    70 -1.494760059495225E-004
                    71 -1.943597756082593E-010
                    72  2.093847388581040E-003
                    73 -2.746077746298831E-004
                    74 -3.380884490961854E-010
                    75 -3.350908596647160E-005
                    76  1.130866029807464E-011
                    77 -5.680198817238627E-012
                    78  3.294369529674578E-006
                    79 -3.078595730650320E-006
                    80  4.295353129074548E-004
                    81 -1.551899294471819E-010
                    82 -8.687545588218321E-011
                    83  6.523604943023296E-004
                    84  2.613500729057527E-004
                    85 -4.673765432583108E-011
                    86 -2.815196783935647E-005
                    87  5.854915283041462E-005
                    88  1.829022547056217E-011
                    89 -3.502729950986188E-011
                    90 -4.210013733173342E-005
                    91 -1.486566658915381E-004
                    92 -1.512492935566022E-002
                    93  2.067279278425416E-003
                    94  2.991221078633880E-004
                    95 -3.164911446962201E-003
                    96 -1.347659302846779E-004
                    97 -1.301877040305131E-004
                    98  1.401824814413674E-011
                    99  9.154341426546882E-004
                   100 -2.534591976648049E-005
                   101 -1.748028206026460E-010
                   102 -1.702473206553212E-003
                   103  1.797141363557716E-007
                   104 -3.537189764083592E-010
                   105 -2.384687447361428E-005
                   106 -3.364221903976785E-012
                   107 -1.220268010236275E-013
                   108  5.756043038489918E-006
                   109 -4.719856987311674E-006
                   110  4.211411537955735E-004
                   111  1.293895722118729E-010
                   112 -1.728949455021717E-010
                   113  3.943259762456920E-004
                   114 -2.431574212365400E-004
                   115 -3.760461111104583E-011
                   116  3.088711488817728E-005
                   117  7.265201118269630E-005
                   118  5.654675216065108E-012
                   119  6.018819338171805E-011
                   120  3.123063011641486E-006
                   121 -1.331880764696162E-004
                   122  8.691506460045844E-005
                   123  6.773440465641754E-004
                   124 -2.302169927952095E-004
                   125  1.314725224549767E-004
                   126 -2.437767158993867E-006
                   127  3.708082908176517E-004
                   128 -2.573937020921859E-010
                   129  8.005560293143959E-005
                   130 -6.165179668729182E-004
                   131  5.842978386802030E-010
                   132 -3.765491783650251E-004
                   133 -9.050375340595281E-004
                   134  7.885615467818519E-010
                   135 -1.855538540311833E-005
                   136 -6.347995551685047E-011
                   137  3.888304778474567E-011
                   138 -4.062901036433484E-006
                   139 -4.314891581214284E-005
                   140 -1.299269990688544E-004
                   141  7.816700218173109E-010
                   142 -6.456651554644795E-011
                   143 -2.535108716670312E-004
                   144  1.092484012703147E-004
                   145  1.282460590613316E-010
                   146 -9.112486441224856E-006
                   147  3.700686174911317E-005
                   148  1.096791785639083E-010
                   149  8.810903174295524E-011
                   150  4.356999448593261E-005
                   151 -3.677097232369161E-005
                   152 -7.916306750257348E-005
                   153  6.508172097941267E-004
                   154 -2.305529548249433E-004
                   155  5.057649889755381E-005
                   156  3.479885910015666E-005
                   157  3.988097685333035E-004
                   158 -2.517644153366428E-010
                   159 -1.308256813407687E-004
                   160 -5.516642731974077E-004