[Molden Format]
[Atoms] AU
  N     1    7    -4.4035399800    0.1182791400    0.0000000000        
  C     2    6    -1.7784225500   -0.0379221500    0.0000000000        
  C     3    6    -0.4689801700   -0.0051215600   -2.3532722600        
  C     4    6    -0.4689801700   -0.0051215600    2.3532722600        
  C     5    6     2.2199636300    0.0066729900   -2.3299531000        
  C     6    6     2.2199636300    0.0066729900    2.3299531000        
  C     7    6     3.5159585800    0.0058223500    0.0000000000        
  H     8    1    -5.2262840100   -0.5745222100   -1.5933755500        
  H     9    1    -5.2262840100   -0.5745222100    1.5933755500        
  H    10    1    -1.5057999900    0.0210304000   -4.0903025200        
  H    11    1    -1.5057999900    0.0210304000    4.0903025200        
  H    12    1     3.2567194000    0.0151023800   -4.0679990300        
  H    13    1     3.2567194000    0.0151023800    4.0679990300        
  H    14    1     5.5450114000    0.0174614600    0.0000000000        
[5D]
[7F]
[GTO]
  1  0
   s    12 1.00
  0.114200D+05  0.172695D-04
  0.171200D+04  0.134411D-03
  0.389300D+03  0.694561D-03
  0.110000D+03  0.278531D-02
  0.355700D+02  0.863457D-02
  0.125400D+02  0.199805D-01
  0.464400D+01  0.262908D-01
  0.129300D+01 -0.243845D-01
  0.511800D+00 -0.924934D-01
  0.178700D+00 -0.339683D+00
  0.246240D-01  0.345111D+00
  0.112530D-01  0.752750D+00
   s    10 1.00
  0.114200D+05  0.523000D-03
  0.171200D+04  0.404500D-02
  0.389300D+03  0.207750D-01
  0.110000D+03  0.807269D-01
  0.355700D+02  0.233074D+00
  0.125400D+02  0.433501D+00
  0.464400D+01  0.347472D+00
  0.129300D+01  0.412620D-01
  0.511800D+00 -0.850799D-02
  0.178700D+00  0.238400D-02
   s    10 1.00
  0.114200D+05 -0.115000D-03
  0.171200D+04 -0.895000D-03
  0.389300D+03 -0.462400D-02
  0.110000D+03 -0.185280D-01
  0.355700D+02 -0.573390D-01
  0.125400D+02 -0.132076D+00
  0.464400D+01 -0.172510D+00
  0.129300D+01  0.151814D+00
  0.511800D+00  0.599944D+00
  0.178700D+00  0.387462D+00
   s     1 1.00
  0.129300D+01  0.100000D+01
   s     1 1.00
  0.178700D+00  0.100000D+01
   p     5 1.00
  0.266300D+02  0.146700D-01
  0.594800D+01  0.917640D-01
  0.174200D+01  0.298683D+00
  0.555000D+00  0.498487D+00
  0.172500D+00  0.337023D+00
   p     1 1.00
  0.174200D+01  0.100000D+01
   p     1 1.00
  0.555000D+00  0.100000D+01
   d     1 1.00
  0.165400D+01  0.100000D+01
   d     1 1.00
  0.469000D+00  0.100000D+01
   f     1 1.00
  0.109300D+01  0.100000D+01
  
  2  0
   s    10 1.00
  0.823600D+04  0.531000D-03
  0.123500D+04  0.410800D-02
  0.280800D+03  0.210870D-01
  0.792700D+02  0.818530D-01
  0.255900D+02  0.234817D+00
  0.899700D+01  0.434401D+00
  0.331900D+01  0.346129D+00
  0.905900D+00  0.393780D-01
  0.364300D+00 -0.898300D-02
  0.128500D+00  0.238500D-02
   s    10 1.00
  0.823600D+04 -0.113000D-03
  0.123500D+04 -0.878000D-03
  0.280800D+03 -0.454000D-02
  0.792700D+02 -0.181330D-01
  0.255900D+02 -0.557600D-01
  0.899700D+01 -0.126895D+00
  0.331900D+01 -0.170352D+00
  0.905900D+00  0.140382D+00
  0.364300D+00  0.598684D+00
  0.128500D+00  0.395389D+00
   s     1 1.00
  0.905900D+00  0.100000D+01
   s     1 1.00
  0.364300D+00  0.100000D+01
   p     5 1.00
  0.187100D+02  0.140310D-01
  0.413300D+01  0.868660D-01
  0.120000D+01  0.290216D+00
  0.382700D+00  0.501008D+00
  0.120900D+00  0.343406D+00
   p     1 1.00
  0.382700D+00  0.100000D+01
   p     1 1.00
  0.120900D+00  0.100000D+01
   d     1 1.00
  0.109700D+01  0.100000D+01
   d     1 1.00
  0.318000D+00  0.100000D+01
   f     1 1.00
  0.761000D+00  0.100000D+01
  
  3  0
   s    10 1.00
  0.823600D+04  0.531000D-03
  0.123500D+04  0.410800D-02
  0.280800D+03  0.210870D-01
  0.792700D+02  0.818530D-01
  0.255900D+02  0.234817D+00
  0.899700D+01  0.434401D+00
  0.331900D+01  0.346129D+00
  0.905900D+00  0.393780D-01
  0.364300D+00 -0.898300D-02
  0.128500D+00  0.238500D-02
   s    10 1.00
  0.823600D+04 -0.113000D-03
  0.123500D+04 -0.878000D-03
  0.280800D+03 -0.454000D-02
  0.792700D+02 -0.181330D-01
  0.255900D+02 -0.557600D-01
  0.899700D+01 -0.126895D+00
  0.331900D+01 -0.170352D+00
  0.905900D+00  0.140382D+00
  0.364300D+00  0.598684D+00
  0.128500D+00  0.395389D+00
   s     1 1.00
  0.905900D+00  0.100000D+01
   s     1 1.00
  0.364300D+00  0.100000D+01
   p     5 1.00
  0.187100D+02  0.140310D-01
  0.413300D+01  0.868660D-01
  0.120000D+01  0.290216D+00
  0.382700D+00  0.501008D+00
  0.120900D+00  0.343406D+00
   p     1 1.00
  0.382700D+00  0.100000D+01
   p     1 1.00
  0.120900D+00  0.100000D+01
   d     1 1.00
  0.109700D+01  0.100000D+01
   d     1 1.00
  0.318000D+00  0.100000D+01
   f     1 1.00
  0.761000D+00  0.100000D+01
  
  4  0
   s    10 1.00
  0.823600D+04  0.531000D-03
  0.123500D+04  0.410800D-02
  0.280800D+03  0.210870D-01
  0.792700D+02  0.818530D-01
  0.255900D+02  0.234817D+00
  0.899700D+01  0.434401D+00
  0.331900D+01  0.346129D+00
  0.905900D+00  0.393780D-01
  0.364300D+00 -0.898300D-02
  0.128500D+00  0.238500D-02
   s    10 1.00
  0.823600D+04 -0.113000D-03
  0.123500D+04 -0.878000D-03
  0.280800D+03 -0.454000D-02
  0.792700D+02 -0.181330D-01
  0.255900D+02 -0.557600D-01
  0.899700D+01 -0.126895D+00
  0.331900D+01 -0.170352D+00
  0.905900D+00  0.140382D+00
  0.364300D+00  0.598684D+00
  0.128500D+00  0.395389D+00
   s     1 1.00
  0.905900D+00  0.100000D+01
   s     1 1.00
  0.364300D+00  0.100000D+01
   p     5 1.00
  0.187100D+02  0.140310D-01
  0.413300D+01  0.868660D-01
  0.120000D+01  0.290216D+00
  0.382700D+00  0.501008D+00
  0.120900D+00  0.343406D+00
   p     1 1.00
  0.382700D+00  0.100000D+01
   p     1 1.00
  0.120900D+00  0.100000D+01
   d     1 1.00
  0.109700D+01  0.100000D+01
   d     1 1.00
  0.318000D+00  0.100000D+01
   f     1 1.00
  0.761000D+00  0.100000D+01
  
  5  0
   s    10 1.00
  0.823600D+04  0.531000D-03
  0.123500D+04  0.410800D-02
  0.280800D+03  0.210870D-01
  0.792700D+02  0.818530D-01
  0.255900D+02  0.234817D+00
  0.899700D+01  0.434401D+00
  0.331900D+01  0.346129D+00
  0.905900D+00  0.393780D-01
  0.364300D+00 -0.898300D-02
  0.128500D+00  0.238500D-02
   s    10 1.00
  0.823600D+04 -0.113000D-03
  0.123500D+04 -0.878000D-03
  0.280800D+03 -0.454000D-02
  0.792700D+02 -0.181330D-01
  0.255900D+02 -0.557600D-01
  0.899700D+01 -0.126895D+00
  0.331900D+01 -0.170352D+00
  0.905900D+00  0.140382D+00
  0.364300D+00  0.598684D+00
  0.128500D+00  0.395389D+00
   s     1 1.00
  0.905900D+00  0.100000D+01
   s     1 1.00
  0.364300D+00  0.100000D+01
   p     5 1.00
  0.187100D+02  0.140310D-01
  0.413300D+01  0.868660D-01
  0.120000D+01  0.290216D+00
  0.382700D+00  0.501008D+00
  0.120900D+00  0.343406D+00
   p     1 1.00
  0.382700D+00  0.100000D+01
   p     1 1.00
  0.120900D+00  0.100000D+01
   d     1 1.00
  0.109700D+01  0.100000D+01
   d     1 1.00
  0.318000D+00  0.100000D+01
   f     1 1.00
  0.761000D+00  0.100000D+01
  
  6  0
   s    10 1.00
  0.823600D+04  0.531000D-03
  0.123500D+04  0.410800D-02
  0.280800D+03  0.210870D-01
  0.792700D+02  0.818530D-01
  0.255900D+02  0.234817D+00
  0.899700D+01  0.434401D+00
  0.331900D+01  0.346129D+00
  0.905900D+00  0.393780D-01
  0.364300D+00 -0.898300D-02
  0.128500D+00  0.238500D-02
   s    10 1.00
  0.823600D+04 -0.113000D-03
  0.123500D+04 -0.878000D-03
  0.280800D+03 -0.454000D-02
  0.792700D+02 -0.181330D-01
  0.255900D+02 -0.557600D-01
  0.899700D+01 -0.126895D+00
  0.331900D+01 -0.170352D+00
  0.905900D+00  0.140382D+00
  0.364300D+00  0.598684D+00
  0.128500D+00  0.395389D+00
   s     1 1.00
  0.905900D+00  0.100000D+01
   s     1 1.00
  0.364300D+00  0.100000D+01
   p     5 1.00
  0.187100D+02  0.140310D-01
  0.413300D+01  0.868660D-01
  0.120000D+01  0.290216D+00
  0.382700D+00  0.501008D+00
  0.120900D+00  0.343406D+00
   p     1 1.00
  0.382700D+00  0.100000D+01
   p     1 1.00
  0.120900D+00  0.100000D+01
   d     1 1.00
  0.109700D+01  0.100000D+01
   d     1 1.00
  0.318000D+00  0.100000D+01
   f     1 1.00
  0.761000D+00  0.100000D+01
  
  7  0
   s    10 1.00
  0.823600D+04  0.531000D-03
  0.123500D+04  0.410800D-02
  0.280800D+03  0.210870D-01
  0.792700D+02  0.818530D-01
  0.255900D+02  0.234817D+00
  0.899700D+01  0.434401D+00
  0.331900D+01  0.346129D+00
  0.905900D+00  0.393780D-01
  0.364300D+00 -0.898300D-02
  0.128500D+00  0.238500D-02
   s    10 1.00
  0.823600D+04 -0.113000D-03
  0.123500D+04 -0.878000D-03
  0.280800D+03 -0.454000D-02
  0.792700D+02 -0.181330D-01
  0.255900D+02 -0.557600D-01
  0.899700D+01 -0.126895D+00
  0.331900D+01 -0.170352D+00
  0.905900D+00  0.140382D+00
  0.364300D+00  0.598684D+00
  0.128500D+00  0.395389D+00
   s     1 1.00
  0.905900D+00  0.100000D+01
   s     1 1.00
  0.364300D+00  0.100000D+01
   p     5 1.00
  0.187100D+02  0.140310D-01
  0.413300D+01  0.868660D-01
  0.120000D+01  0.290216D+00
  0.382700D+00  0.501008D+00
  0.120900D+00  0.343406D+00
   p     1 1.00
  0.382700D+00  0.100000D+01
   p     1 1.00
  0.120900D+00  0.100000D+01
   d     1 1.00
  0.109700D+01  0.100000D+01
   d     1 1.00
  0.318000D+00  0.100000D+01
   f     1 1.00
  0.761000D+00  0.100000D+01
  
  8  0
   s     4 1.00
  0.130100D+02  0.196850D-01
  0.196200D+01  0.137977D+00
  0.444600D+00  0.478148D+00
  0.122000D+00  0.501240D+00
   s     1 1.00
  0.122000D+00  0.100000D+01
   p     1 1.00
  0.727000D+00  0.100000D+01
  
  9  0
   s     4 1.00
  0.130100D+02  0.196850D-01
  0.196200D+01  0.137977D+00
  0.444600D+00  0.478148D+00
  0.122000D+00  0.501240D+00
   s     1 1.00
  0.122000D+00  0.100000D+01
   p     1 1.00
  0.727000D+00  0.100000D+01
  
 10  0
   s     4 1.00
  0.130100D+02  0.196850D-01
  0.196200D+01  0.137977D+00
  0.444600D+00  0.478148D+00
  0.122000D+00  0.501240D+00
   s     1 1.00
  0.122000D+00  0.100000D+01
   p     1 1.00
  0.727000D+00  0.100000D+01
  
 11  0
   s     4 1.00
  0.130100D+02  0.196850D-01
  0.196200D+01  0.137977D+00
  0.444600D+00  0.478148D+00
  0.122000D+00  0.501240D+00
   s     1 1.00
  0.122000D+00  0.100000D+01
   p     1 1.00
  0.727000D+00  0.100000D+01
  
 12  0
   s     4 1.00
  0.130100D+02  0.196850D-01
  0.196200D+01  0.137977D+00
  0.444600D+00  0.478148D+00
  0.122000D+00  0.501240D+00
   s     1 1.00
  0.122000D+00  0.100000D+01
   p     1 1.00
  0.727000D+00  0.100000D+01
  
 13  0
   s     4 1.00
  0.130100D+02  0.196850D-01
  0.196200D+01  0.137977D+00
  0.444600D+00  0.478148D+00
  0.122000D+00  0.501240D+00
   s     1 1.00
  0.122000D+00  0.100000D+01
   p     1 1.00
  0.727000D+00  0.100000D+01
  
 14  0
   s     4 1.00
  0.130100D+02  0.196850D-01
  0.196200D+01  0.137977D+00
  0.444600D+00  0.478148D+00
  0.122000D+00  0.501240D+00
   s     1 1.00
  0.122000D+00  0.100000D+01
   p     1 1.00
  0.727000D+00  0.100000D+01
  
[MO]
 Sym= __1_A'_
 Ene=   1.00000000000000     
 Spin= Alpha
 Occup=    1.00000000000000     
                     1  1.693065511198865E-004
                     2  0.998076176607600     
                     3  5.584351000701883E-003
                     4  1.977185727670197E-003
                     5  4.281079510171419E-003
                     6  4.886831179557008E-003
                     7 -3.689493973440714E-003
                     8  0.000000000000000E+000
                     9 -5.210771787525816E-004
                    10  1.218050680941035E-004
                    11  0.000000000000000E+000
                    12 -8.342090888613207E-004
                    13  2.455434356577126E-003
                    14  0.000000000000000E+000
                    15 -7.121864102400258E-006
                    16  0.000000000000000E+000
                    17  0.000000000000000E+000
                    18  1.408247430761776E-004
                    19  5.811210015964952E-005
                    20 -4.233294965254675E-004
                    21  0.000000000000000E+000
                    22  0.000000000000000E+000
                    23 -1.413822752985293E-005
                    24 -4.287452564475174E-004
                    25  0.000000000000000E+000
                    26 -1.681783440683593E-004
                    27 -5.992398988174368E-005
                    28  0.000000000000000E+000
                    29  0.000000000000000E+000
                    30 -9.559123648770133E-005
                    31 -6.422729245402177E-005
                    32 -3.833898802420482E-004
                    33  1.343673255672102E-003
                    34  2.064391254195296E-004
                    35 -1.067130161198553E-004
                    36 -5.170115321722870E-003
                    37  8.074260746233803E-005
                    38  0.000000000000000E+000
                    39  2.336672883980802E-004
                    40  6.169281836529551E-006
                    41  0.000000000000000E+000
                    42  4.658352564279977E-003
                    43  6.729076077886626E-004
                    44  0.000000000000000E+000
                    45 -2.492085051611113E-004
                    46  0.000000000000000E+000
                    47  0.000000000000000E+000
                    48  2.143008062927282E-004
                    49  3.536575413800031E-005
                    50  4.252046851966767E-004
                    51  0.000000000000000E+000
                    52  0.000000000000000E+000
                    53  5.892128863469414E-005
                    54 -3.118785657584437E-004
                    55  0.000000000000000E+000
                    56 -8.870948028325050E-005
                    57  1.496652159971230E-005
                    58  0.000000000000000E+000
                    59  0.000000000000000E+000
                    60 -4.692581505272694E-005
                    61  3.721687194111771E-005
                    62 -3.146498780925456E-004
                    63 -1.777576274272626E-003
                    64  8.864008350152506E-005
                    65  7.132170260074725E-004
                    66  6.725514358779253E-004
                    67 -3.047032965349445E-005
                    68 -6.833159195115946E-004
                    69  6.060786092484718E-004
                    70  5.929293737947996E-005
                    71  2.700432134123253E-005
                    72 -3.991267211997410E-004
                    73 -2.784626160140254E-004
                    74 -7.227101469621135E-004
                    75 -7.194188008954921E-005
                    76 -1.257497595041330E-005
                    77  1.697491012693490E-005
                    78  5.409855778692548E-005
                    79 -5.695709035962753E-006
                    80  1.123709364491984E-004
                    81  2.031544854419917E-004
                    82 -2.755306403335893E-005
                    83 -7.192618389760307E-005
                    84  3.242069556560690E-005
                    85 -1.467145519318114E-005
                    86 -5.698315646120182E-005
                    87  1.743131202042950E-005
                    88 -2.014113165045474E-005
                    89  1.295998377821063E-005
                    90 -4.732433776329295E-005
                    91 -8.739624800745176E-006
                    92 -3.146498780925456E-004
                    93 -1.777576274272626E-003
                    94  8.864008350152506E-005
                    95  7.132170260074725E-004
                    96  6.725514358779253E-004
                    97 -3.047032965349445E-005
                    98  6.833159195115946E-004
                    99  6.060786092484718E-004
                   100  5.929293737947996E-005
                   101 -2.700432134123253E-005
                   102 -3.991267211997410E-004
                   103 -2.784626160140254E-004
                   104  7.227101469621135E-004
                   105 -7.194188008954921E-005
                   106  1.257497595041330E-005
                   107 -1.697491012693490E-005
                   108  5.409855778692548E-005
                   109 -5.695709035962753E-006
                   110  1.123709364491984E-004
                   111 -2.031544854419917E-004
                   112  2.755306403335893E-005
                   113 -7.192618389760307E-005
                   114  3.242069556560690E-005
                   115  1.467145519318114E-005
                   116 -5.698315646120182E-005
                   117  1.743131202042950E-005
                   118  2.014113165045474E-005
                   119 -1.295998377821063E-005
                   120 -4.732433776329295E-005
                   121 -8.739624800745176E-006
                   122 -1.431316455960457E-004
                   123 -1.069675629529248E-004
                   124  5.705475632420232E-005
                   125  3.887746467299372E-004
                   126 -6.271760751683971E-004
                   127 -2.766828640748424E-005
                   128  2.784034682994756E-005
                   129  2.282793113468910E-004
                   130 -1.080274186420064E-005
                   131  2.269021670133232E-005
                   132  7.775510695722513E-004
                   133  1.163083359353978E-004
                   134 -2.846887696778531E-004
                   135  3.272047378364357E-006
                   136 -1.307714687378019E-006
                   137 -3.235059097475188E-006
                   138  3.591472252924738E-007
                   139  7.059618013652788E-006
                   140  7.076510572839485E-005
                   141  1.982680358499557E-004
                   142  8.365510273098139E-006
                   143 -1.750986445060174E-004
                   144 -2.020162746456163E-005
                   145 -6.634373512266928E-006
                   146 -1.635336931373777E-005
                   147  1.349055760348860E-006
                   148 -1.404027036768653E-007
                   149 -1.616012201922200E-006
                   150 -4.256770787991732E-005
                   151  7.373826017165398E-007
                   152 -1.431316455960457E-004
                   153 -1.069675629529248E-004
                   154  5.705475632420232E-005
                   155  3.887746467299372E-004
                   156 -6.271760751683971E-004
                   157 -2.766828640748424E-005
                   158 -2.784034682994756E-005
                   159  2.282793113468910E-004
                   160 -1.080274186420064E-005
                   161 -2.269021670133232E-005
                   162  7.775510695722513E-004
                   163  1.163083359353978E-004
                   164  2.846887696778531E-004
                   165  3.272047378364357E-006
                   166  1.307714687378019E-006
                   167  3.235059097475188E-006
                   168  3.591472252924738E-007
                   169  7.059618013652788E-006
                   170  7.076510572839485E-005
                   171 -1.982680358499557E-004
                   172 -8.365510273098139E-006
                   173 -1.750986445060174E-004
                   174 -2.020162746456163E-005
                   175  6.634373512266928E-006
                   176 -1.635336931373777E-005
                   177  1.349055760348860E-006
                   178  1.404027036768653E-007
                   179  1.616012201922200E-006
                   180 -4.256770787991732E-005
                   181  7.373826017165398E-007
                   182 -9.236342008840357E-005
                   183 -2.642795157731995E-004
                   184  2.844266668514608E-005
                   185  7.687854675832909E-005
                   186 -2.163707739824501E-005
                   187 -4.140451336131902E-005
                   188  0.000000000000000E+000
                   189  6.428173331386025E-005
                   190  1.784375671767128E-005
                   191  0.000000000000000E+000
                   192 -2.600880944486456E-004
                   193 -8.299418733495262E-005
                   194  0.000000000000000E+000
                   195 -1.138811443332035E-005
                   196  0.000000000000000E+000
                   197  0.000000000000000E+000
                   198  6.320028127419214E-006
                   199 -1.381290300147578E-006
                   200 -1.151353435477560E-004
                   201  0.000000000000000E+000
                   202  0.000000000000000E+000
                   203  5.082817434533566E-005
                   204  1.284402922827635E-005
                   205  0.000000000000000E+000
                   206  9.372382207950260E-007
                   207  2.150874487672293E-006
                   208  0.000000000000000E+000
                   209  0.000000000000000E+000
                   210 -5.074541667559032E-006
                   211 -1.646887191672663E-006
                   212  3.116450100278622E-003
                   213 -2.265991214976499E-003
                   214  2.355542473256961E-004
                   215  2.508867085680314E-004
                   216  3.937584138800572E-004
                   217  3.116450100278622E-003
                   218 -2.265991214976499E-003
                   219  2.355542473256961E-004
                   220  2.508867085680314E-004
                   221 -3.937584138800572E-004
                   222 -5.288068348997509E-004
                   223 -2.657856530770474E-004
                   224 -4.961445177492861E-005
                   225  6.144973252949402E-006
                   226  2.173410708188067E-005
                   227 -5.288068348997509E-004
                   228 -2.657856530770474E-004
                   229 -4.961445177492861E-005
                   230  6.144973252949402E-006
                   231 -2.173410708188067E-005
                   232 -1.414761428759866E-004
                   233 -4.702147895270883E-004
                   234  6.527018923795774E-006
                   235 -4.555399021542792E-007
                   236 -4.308112724166739E-006
                   237 -1.414761428759866E-004
                   238 -4.702147895270883E-004
                   239  6.527018923795774E-006
                   240 -4.555399021542792E-007
                   241  4.308112724166739E-006
                   242  3.835660333102628E-005
                   243  5.772986913708431E-005
                   244  2.202655022979941E-005
                   245  1.107834359482345E-006
                   246  0.000000000000000E+000
 Sym= __2_A'_
 Ene=   2.00000000000000     
 Spin= Alpha
 Occup=    1.00000000000000     
                     1 -2.924505896131728E-005
                     2 -1.528960108149045E-004
                     3  1.981958106244257E-003
                     4  4.212702030846711E-005
                     5  1.180443844635369E-003
                     6  2.210821589724736E-003
                     7  3.646388791276182E-004
                     8  0.000000000000000E+000
                     9 -7.119178328564327E-005
                    10  6.822678220252918E-005
                    11  0.000000000000000E+000
                    12 -1.714074787320556E-004
                    13  1.270806949290623E-005
                    14  0.000000000000000E+000
                    15 -7.270246148627742E-005
                    16  0.000000000000000E+000
                    17  0.000000000000000E+000
                    18  2.489917063766774E-005
                    19 -9.306069469089689E-007
                    20  2.789929657652390E-004
                    21  0.000000000000000E+000
                    22  0.000000000000000E+000
                    23  3.611098500255812E-005
                    24 -2.412190841289472E-005
                    25  0.000000000000000E+000
                    26  1.322533371873713E-004
                    27 -5.973730887394328E-005
                    28  0.000000000000000E+000
                    29  0.000000000000000E+000
                    30  1.295331114266305E-004
                    31  3.392632670978623E-005
                    32   1.00105914066951     
                    33  8.810703362999871E-003
                    34  2.619376554553721E-003
                    35 -8.058467985343069E-003
                    36 -3.000899641172850E-003
                    37  6.672070636313262E-004
                    38  0.000000000000000E+000
                    39  8.962507090489807E-004
                    40 -1.948990191002521E-004
                    41  0.000000000000000E+000
                    42  3.728858044251458E-003
                    43 -9.180558517591205E-005
                    44  0.000000000000000E+000
                    45  2.378632626653593E-004
                    46  0.000000000000000E+000
                    47  0.000000000000000E+000
                    48  4.500420321123538E-004
                    49 -3.065252551404588E-005
                    50 -1.278759240640575E-003
                    51  0.000000000000000E+000
                    52  0.000000000000000E+000
                    53  5.709099452331670E-005
                    54  3.104004814556442E-005
                    55  0.000000000000000E+000
                    56  3.117728821507019E-004
                    57 -8.303962339235196E-006
                    58  0.000000000000000E+000
                    59  0.000000000000000E+000
                    60  1.181303903226249E-004
                    61  2.590080474204541E-005
                    62  1.033816898349690E-002
                    63 -1.886738168829365E-003
                    64 -2.993372716214132E-004
                    65  3.071174440116279E-003
                    66 -6.418479251570685E-005
                    67  1.218286128685944E-004
                    68  1.955242521500487E-004
                    69 -1.405236986781134E-004
                    70 -1.464664873296811E-005
                    71  6.273417730789732E-004
                    72  1.414908649216649E-005
                    73 -1.581023647187375E-005
                    74 -1.981260219351210E-003
                    75  2.129037640205752E-006
                    76  1.169993835039524E-005
                    77  8.909906748865146E-006
                    78 -3.186082033889938E-005
                    79 -6.252372695933213E-006
                    80 -4.045412055792830E-004
                    81 -5.690442896100817E-004
                    82 -9.053508570975656E-006
                    83  6.970631993437996E-004
                    84  1.802992008482683E-005
                    85  7.996150737559685E-005
                    86  1.127386993697702E-004
                    87  1.146004870613993E-006
                    88  5.191932766917948E-006
                    89 -7.058597328460273E-006
                    90 -2.311750521693697E-005
                    91  4.584163106843513E-006
                    92  1.033816898349690E-002
                    93 -1.886738168829365E-003
                    94 -2.993372716214132E-004
                    95  3.071174440116279E-003
                    96 -6.418479251570685E-005
                    97  1.218286128685944E-004
                    98 -1.955242521500487E-004
                    99 -1.405236986781134E-004
                   100 -1.464664873296811E-005
                   101 -6.273417730789732E-004
                   102  1.414908649216649E-005
                   103 -1.581023647187375E-005
                   104  1.981260219351210E-003
                   105  2.129037640205752E-006
                   106 -1.169993835039524E-005
                   107 -8.909906748865146E-006
                   108 -3.186082033889938E-005
                   109 -6.252372695933213E-006
                   110 -4.045412055792830E-004
                   111  5.690442896100817E-004
                   112  9.053508570975656E-006
                   113  6.970631993437996E-004
                   114  1.802992008482683E-005
                   115 -7.996150737559685E-005
                   116  1.127386993697702E-004
                   117  1.146004870613993E-006
                   118 -5.191932766917948E-006
                   119  7.058597328460273E-006
                   120 -2.311750521693697E-005
                   121  4.584163106843513E-006
                   122 -1.964547921022345E-004
                   123 -6.853681889469617E-004
                   124  2.273148342304448E-004
                   125 -1.349016278833002E-004
                   126 -2.139976116663478E-004
                   127  2.387033764305145E-005
                   128 -2.668849174761170E-005
                   129  4.897746795393961E-004
                   130 -5.619755508169444E-006
                   131  1.756950067233492E-005
                   132  6.361422851120486E-004
                   133  3.339661453283294E-006
                   134  3.317555608159557E-004
                   135 -2.667656765258019E-006
                   136  4.492618751613518E-005
                   137 -4.111432210877723E-007
                   138 -2.025637188782350E-005
                   139 -1.812484814401270E-006
                   140  1.640992615935267E-004
                   141 -2.775979282335886E-004
                   142  5.213652756278586E-006
                   143 -2.560152532007034E-004
                   144 -7.182177559462429E-007
                   145 -2.343799041488976E-005
                   146  1.558390486177763E-005
                   147  4.173329655177744E-007
                   148 -2.392169328749718E-005
                   149 -2.485780237813200E-006
                   150 -2.743635206057072E-005
                   151 -6.557498588420240E-007
                   152 -1.964547921022345E-004
                   153 -6.853681889469617E-004
                   154  2.273148342304448E-004
                   155 -1.349016278833002E-004
                   156 -2.139976116663478E-004
                   157  2.387033764305145E-005
                   158  2.668849174761170E-005
                   159  4.897746795393961E-004
                   160 -5.619755508169444E-006