[Molden Format]
[Atoms] AU
  N     1    7    -0.0726898800   -4.3076849000    0.0000000000        
  C     2    6     0.0137393500   -1.8185223500    0.0000000000        
  C     3    6    -2.2948994300   -0.4298698800    0.0000000000        
  C     4    6     2.3178103900   -0.4158979900    0.0000000000        
  C     5    6    -2.2775651700    2.1628272600    0.0000000000        
  C     6    6     2.2903478500    2.1773617100    0.0000000000        
  C     7    6     0.0023572400    3.4942210300    0.0000000000        
  H     8    1    -2.9192179600   -6.2238481800    0.0000000000        
  H     9    1     1.6187798800   -5.1705776300    0.0000000000        
  H    10    1    -4.0352240500   -1.4722400500    0.0000000000        
  H    11    1     4.0811782200   -1.4275437600    0.0000000000        
  H    12    1    -4.0356752900    3.1817051800    0.0000000000        
  H    13    1     4.0433219600    3.2054635100    0.0000000000        
  H    14    1    -0.0026911800    5.5245188200    0.0000000000        
[5D]
[7F]
[GTO]
  1  0
   s    12 1.00
  0.114200D+05  0.172695D-04
  0.171200D+04  0.134411D-03
  0.389300D+03  0.694561D-03
  0.110000D+03  0.278531D-02
  0.355700D+02  0.863457D-02
  0.125400D+02  0.199805D-01
  0.464400D+01  0.262908D-01
  0.129300D+01 -0.243845D-01
  0.511800D+00 -0.924934D-01
  0.178700D+00 -0.339683D+00
  0.246240D-01  0.345111D+00
  0.112530D-01  0.752750D+00
   s    10 1.00
  0.114200D+05  0.523000D-03
  0.171200D+04  0.404500D-02
  0.389300D+03  0.207750D-01
  0.110000D+03  0.807269D-01
  0.355700D+02  0.233074D+00
  0.125400D+02  0.433501D+00
  0.464400D+01  0.347472D+00
  0.129300D+01  0.412620D-01
  0.511800D+00 -0.850799D-02
  0.178700D+00  0.238400D-02
   s    10 1.00
  0.114200D+05 -0.115000D-03
  0.171200D+04 -0.895000D-03
  0.389300D+03 -0.462400D-02
  0.110000D+03 -0.185280D-01
  0.355700D+02 -0.573390D-01
  0.125400D+02 -0.132076D+00
  0.464400D+01 -0.172510D+00
  0.129300D+01  0.151814D+00
  0.511800D+00  0.599944D+00
  0.178700D+00  0.387462D+00
   s     1 1.00
  0.129300D+01  0.100000D+01
   s     1 1.00
  0.178700D+00  0.100000D+01
   p     5 1.00
  0.266300D+02  0.146700D-01
  0.594800D+01  0.917640D-01
  0.174200D+01  0.298683D+00
  0.555000D+00  0.498487D+00
  0.172500D+00  0.337023D+00
   p     1 1.00
  0.174200D+01  0.100000D+01
   p     1 1.00
  0.555000D+00  0.100000D+01
   d     1 1.00
  0.165400D+01  0.100000D+01
   d     1 1.00
  0.469000D+00  0.100000D+01
   f     1 1.00
  0.109300D+01  0.100000D+01
  
  2  0
   s    10 1.00
  0.823600D+04  0.531000D-03
  0.123500D+04  0.410800D-02
  0.280800D+03  0.210870D-01
  0.792700D+02  0.818530D-01
  0.255900D+02  0.234817D+00
  0.899700D+01  0.434401D+00
  0.331900D+01  0.346129D+00
  0.905900D+00  0.393780D-01
  0.364300D+00 -0.898300D-02
  0.128500D+00  0.238500D-02
   s    10 1.00
  0.823600D+04 -0.113000D-03
  0.123500D+04 -0.878000D-03
  0.280800D+03 -0.454000D-02
  0.792700D+02 -0.181330D-01
  0.255900D+02 -0.557600D-01
  0.899700D+01 -0.126895D+00
  0.331900D+01 -0.170352D+00
  0.905900D+00  0.140382D+00
  0.364300D+00  0.598684D+00
  0.128500D+00  0.395389D+00
   s     1 1.00
  0.905900D+00  0.100000D+01
   s     1 1.00
  0.364300D+00  0.100000D+01
   p     5 1.00
  0.187100D+02  0.140310D-01
  0.413300D+01  0.868660D-01
  0.120000D+01  0.290216D+00
  0.382700D+00  0.501008D+00
  0.120900D+00  0.343406D+00
   p     1 1.00
  0.382700D+00  0.100000D+01
   p     1 1.00
  0.120900D+00  0.100000D+01
   d     1 1.00
  0.109700D+01  0.100000D+01
   d     1 1.00
  0.318000D+00  0.100000D+01
   f     1 1.00
  0.761000D+00  0.100000D+01
  
  3  0
   s    10 1.00
  0.823600D+04  0.531000D-03
  0.123500D+04  0.410800D-02
  0.280800D+03  0.210870D-01
  0.792700D+02  0.818530D-01
  0.255900D+02  0.234817D+00
  0.899700D+01  0.434401D+00
  0.331900D+01  0.346129D+00
  0.905900D+00  0.393780D-01
  0.364300D+00 -0.898300D-02
  0.128500D+00  0.238500D-02
   s    10 1.00
  0.823600D+04 -0.113000D-03
  0.123500D+04 -0.878000D-03
  0.280800D+03 -0.454000D-02
  0.792700D+02 -0.181330D-01
  0.255900D+02 -0.557600D-01
  0.899700D+01 -0.126895D+00
  0.331900D+01 -0.170352D+00
  0.905900D+00  0.140382D+00
  0.364300D+00  0.598684D+00
  0.128500D+00  0.395389D+00
   s     1 1.00
  0.905900D+00  0.100000D+01
   s     1 1.00
  0.364300D+00  0.100000D+01
   p     5 1.00
  0.187100D+02  0.140310D-01
  0.413300D+01  0.868660D-01
  0.120000D+01  0.290216D+00
  0.382700D+00  0.501008D+00
  0.120900D+00  0.343406D+00
   p     1 1.00
  0.382700D+00  0.100000D+01
   p     1 1.00
  0.120900D+00  0.100000D+01
   d     1 1.00
  0.109700D+01  0.100000D+01
   d     1 1.00
  0.318000D+00  0.100000D+01
   f     1 1.00
  0.761000D+00  0.100000D+01
  
  4  0
   s    10 1.00
  0.823600D+04  0.531000D-03
  0.123500D+04  0.410800D-02
  0.280800D+03  0.210870D-01
  0.792700D+02  0.818530D-01
  0.255900D+02  0.234817D+00
  0.899700D+01  0.434401D+00
  0.331900D+01  0.346129D+00
  0.905900D+00  0.393780D-01
  0.364300D+00 -0.898300D-02
  0.128500D+00  0.238500D-02
   s    10 1.00
  0.823600D+04 -0.113000D-03
  0.123500D+04 -0.878000D-03
  0.280800D+03 -0.454000D-02
  0.792700D+02 -0.181330D-01
  0.255900D+02 -0.557600D-01
  0.899700D+01 -0.126895D+00
  0.331900D+01 -0.170352D+00
  0.905900D+00  0.140382D+00
  0.364300D+00  0.598684D+00
  0.128500D+00  0.395389D+00
   s     1 1.00
  0.905900D+00  0.100000D+01
   s     1 1.00
  0.364300D+00  0.100000D+01
   p     5 1.00
  0.187100D+02  0.140310D-01
  0.413300D+01  0.868660D-01
  0.120000D+01  0.290216D+00
  0.382700D+00  0.501008D+00
  0.120900D+00  0.343406D+00
   p     1 1.00
  0.382700D+00  0.100000D+01
   p     1 1.00
  0.120900D+00  0.100000D+01
   d     1 1.00
  0.109700D+01  0.100000D+01
   d     1 1.00
  0.318000D+00  0.100000D+01
   f     1 1.00
  0.761000D+00  0.100000D+01
  
  5  0
   s    10 1.00
  0.823600D+04  0.531000D-03
  0.123500D+04  0.410800D-02
  0.280800D+03  0.210870D-01
  0.792700D+02  0.818530D-01
  0.255900D+02  0.234817D+00
  0.899700D+01  0.434401D+00
  0.331900D+01  0.346129D+00
  0.905900D+00  0.393780D-01
  0.364300D+00 -0.898300D-02
  0.128500D+00  0.238500D-02
   s    10 1.00
  0.823600D+04 -0.113000D-03
  0.123500D+04 -0.878000D-03
  0.280800D+03 -0.454000D-02
  0.792700D+02 -0.181330D-01
  0.255900D+02 -0.557600D-01
  0.899700D+01 -0.126895D+00
  0.331900D+01 -0.170352D+00
  0.905900D+00  0.140382D+00
  0.364300D+00  0.598684D+00
  0.128500D+00  0.395389D+00
   s     1 1.00
  0.905900D+00  0.100000D+01
   s     1 1.00
  0.364300D+00  0.100000D+01
   p     5 1.00
  0.187100D+02  0.140310D-01
  0.413300D+01  0.868660D-01
  0.120000D+01  0.290216D+00
  0.382700D+00  0.501008D+00
  0.120900D+00  0.343406D+00
   p     1 1.00
  0.382700D+00  0.100000D+01
   p     1 1.00
  0.120900D+00  0.100000D+01
   d     1 1.00
  0.109700D+01  0.100000D+01
   d     1 1.00
  0.318000D+00  0.100000D+01
   f     1 1.00
  0.761000D+00  0.100000D+01
  
  6  0
   s    10 1.00
  0.823600D+04  0.531000D-03
  0.123500D+04  0.410800D-02
  0.280800D+03  0.210870D-01
  0.792700D+02  0.818530D-01
  0.255900D+02  0.234817D+00
  0.899700D+01  0.434401D+00
  0.331900D+01  0.346129D+00
  0.905900D+00  0.393780D-01
  0.364300D+00 -0.898300D-02
  0.128500D+00  0.238500D-02
   s    10 1.00
  0.823600D+04 -0.113000D-03
  0.123500D+04 -0.878000D-03
  0.280800D+03 -0.454000D-02
  0.792700D+02 -0.181330D-01
  0.255900D+02 -0.557600D-01
  0.899700D+01 -0.126895D+00
  0.331900D+01 -0.170352D+00
  0.905900D+00  0.140382D+00
  0.364300D+00  0.598684D+00
  0.128500D+00  0.395389D+00
   s     1 1.00
  0.905900D+00  0.100000D+01
   s     1 1.00
  0.364300D+00  0.100000D+01
   p     5 1.00
  0.187100D+02  0.140310D-01
  0.413300D+01  0.868660D-01
  0.120000D+01  0.290216D+00
  0.382700D+00  0.501008D+00
  0.120900D+00  0.343406D+00
   p     1 1.00
  0.382700D+00  0.100000D+01
   p     1 1.00
  0.120900D+00  0.100000D+01
   d     1 1.00
  0.109700D+01  0.100000D+01
   d     1 1.00
  0.318000D+00  0.100000D+01
   f     1 1.00
  0.761000D+00  0.100000D+01
  
  7  0
   s    10 1.00
  0.823600D+04  0.531000D-03
  0.123500D+04  0.410800D-02
  0.280800D+03  0.210870D-01
  0.792700D+02  0.818530D-01
  0.255900D+02  0.234817D+00
  0.899700D+01  0.434401D+00
  0.331900D+01  0.346129D+00
  0.905900D+00  0.393780D-01
  0.364300D+00 -0.898300D-02
  0.128500D+00  0.238500D-02
   s    10 1.00
  0.823600D+04 -0.113000D-03
  0.123500D+04 -0.878000D-03
  0.280800D+03 -0.454000D-02
  0.792700D+02 -0.181330D-01
  0.255900D+02 -0.557600D-01
  0.899700D+01 -0.126895D+00
  0.331900D+01 -0.170352D+00
  0.905900D+00  0.140382D+00
  0.364300D+00  0.598684D+00
  0.128500D+00  0.395389D+00
   s     1 1.00
  0.905900D+00  0.100000D+01
   s     1 1.00
  0.364300D+00  0.100000D+01
   p     5 1.00
  0.187100D+02  0.140310D-01
  0.413300D+01  0.868660D-01
  0.120000D+01  0.290216D+00
  0.382700D+00  0.501008D+00
  0.120900D+00  0.343406D+00
   p     1 1.00
  0.382700D+00  0.100000D+01
   p     1 1.00
  0.120900D+00  0.100000D+01
   d     1 1.00
  0.109700D+01  0.100000D+01
   d     1 1.00
  0.318000D+00  0.100000D+01
   f     1 1.00
  0.761000D+00  0.100000D+01
  
  8  0
   s     4 1.00
  0.130100D+02  0.196850D-01
  0.196200D+01  0.137977D+00
  0.444600D+00  0.478148D+00
  0.122000D+00  0.501240D+00
   s     1 1.00
  0.122000D+00  0.100000D+01
   p     1 1.00
  0.727000D+00  0.100000D+01
  
  9  0
   s     4 1.00
  0.130100D+02  0.196850D-01
  0.196200D+01  0.137977D+00
  0.444600D+00  0.478148D+00
  0.122000D+00  0.501240D+00
   s     1 1.00
  0.122000D+00  0.100000D+01
   p     1 1.00
  0.727000D+00  0.100000D+01
  
 10  0
   s     4 1.00
  0.130100D+02  0.196850D-01
  0.196200D+01  0.137977D+00
  0.444600D+00  0.478148D+00
  0.122000D+00  0.501240D+00
   s     1 1.00
  0.122000D+00  0.100000D+01
   p     1 1.00
  0.727000D+00  0.100000D+01
  
 11  0
   s     4 1.00
  0.130100D+02  0.196850D-01
  0.196200D+01  0.137977D+00
  0.444600D+00  0.478148D+00
  0.122000D+00  0.501240D+00
   s     1 1.00
  0.122000D+00  0.100000D+01
   p     1 1.00
  0.727000D+00  0.100000D+01
  
 12  0
   s     4 1.00
  0.130100D+02  0.196850D-01
  0.196200D+01  0.137977D+00
  0.444600D+00  0.478148D+00
  0.122000D+00  0.501240D+00
   s     1 1.00
  0.122000D+00  0.100000D+01
   p     1 1.00
  0.727000D+00  0.100000D+01
  
 13  0
   s     4 1.00
  0.130100D+02  0.196850D-01
  0.196200D+01  0.137977D+00
  0.444600D+00  0.478148D+00
  0.122000D+00  0.501240D+00
   s     1 1.00
  0.122000D+00  0.100000D+01
   p     1 1.00
  0.727000D+00  0.100000D+01
  
 14  0
   s     4 1.00
  0.130100D+02  0.196850D-01
  0.196200D+01  0.137977D+00
  0.444600D+00  0.478148D+00
  0.122000D+00  0.501240D+00
   s     1 1.00
  0.122000D+00  0.100000D+01
   p     1 1.00
  0.727000D+00  0.100000D+01
  
[MO]
 Sym= __1_A__
 Ene=   1.00000000000000     
 Spin= Alpha
 Occup=    1.00000000000000     
                     1  5.542941760561646E-005
                     2  0.998439054204514     
                     3 -2.092606606182973E-003
                     4  1.845620542751147E-003
                     5  4.583596428543408E-003
                     6  1.619386588002487E-003
                     7  4.019889675473785E-003
                     8  0.000000000000000E+000
                     9 -3.254335435938670E-004
                    10 -1.629621566225388E-004
                    11  0.000000000000000E+000
                    12 -1.408345379257327E-003
                    13 -1.068451890841586E-003
                    14  0.000000000000000E+000
                    15 -8.065851081528067E-005
                    16  0.000000000000000E+000
                    17  0.000000000000000E+000
                    18 -1.868080578711214E-004
                    19 -9.517604845676162E-005
                    20  2.163305657698202E-004
                    21  0.000000000000000E+000
                    22  0.000000000000000E+000
                    23 -3.675165519594568E-005
                    24  3.928039063965137E-004
                    25  0.000000000000000E+000
                    26 -3.207806968029952E-006
                    27 -2.919930597766931E-005
                    28  0.000000000000000E+000
                    29  0.000000000000000E+000
                    30  2.214315894115352E-005
                    31 -1.083615471578564E-004
                    32 -1.955173498293659E-004
                    33  5.940764164369323E-004
                    34  1.950682674800530E-004
                    35  1.568407703084461E-005
                    36 -1.598798356502458E-004
                    37 -2.592020723796325E-003
                    38  0.000000000000000E+000
                    39  1.615249620868565E-004
                    40 -2.273108896293280E-004
                    41  0.000000000000000E+000
                    42 -8.582714816695264E-004
                    43  4.004790107598220E-003
                    44  0.000000000000000E+000
                    45 -3.381399353693831E-006
                    46  0.000000000000000E+000
                    47  0.000000000000000E+000
                    48 -1.445305771560796E-004
                    49 -2.641125067218200E-006
                    50 -2.445474070440162E-004
                    51  0.000000000000000E+000
                    52  0.000000000000000E+000
                    53 -1.441792770078668E-004
                    54  5.567073976281810E-004
                    55  0.000000000000000E+000
                    56 -2.708244569443790E-006
                    57 -5.736341273059117E-005
                    58  0.000000000000000E+000
                    59  0.000000000000000E+000
                    60  7.862027382184880E-006
                    61 -1.413399210365402E-004
                    62 -3.271258040774606E-004
                    63 -1.348306158722929E-003
                    64 -7.558818033505901E-005
                    65  1.491091809062218E-003
                    66 -2.999623205095686E-004
                    67  1.098047701027141E-004
                    68  0.000000000000000E+000
                    69  2.697455735994787E-004
                    70  6.077979494693998E-004
                    71  0.000000000000000E+000
                    72 -1.191877919886768E-003
                    73  2.128671162417205E-004
                    74  0.000000000000000E+000
                    75 -3.765583068822746E-005
                    76  0.000000000000000E+000
                    77  0.000000000000000E+000
                    78 -3.940802635711260E-005
                    79 -2.024245146255984E-005
                    80 -8.070263959679956E-005
                    81  0.000000000000000E+000
                    82  0.000000000000000E+000
                    83  2.074228302397284E-005
                    84 -3.381951104372506E-005
                    85  0.000000000000000E+000
                    86  1.636182788427268E-005
                    87 -4.279326371758971E-005
                    88  0.000000000000000E+000
                    89  0.000000000000000E+000
                    90 -3.223119000612682E-005
                    91 -1.315989578134562E-004
                    92 -1.837968172890606E-004
                    93 -8.251217148267313E-004
                    94  8.797198096080354E-005
                    95  2.336925702154864E-004
                    96  2.704410402274558E-004
                    97  1.979376914332619E-004
                    98  0.000000000000000E+000
                    99  2.191190515270505E-004
                   100  3.463416338002776E-004
                   101  0.000000000000000E+000
                   102  5.369825999884219E-004
                   103 -9.396166934533322E-004
                   104  0.000000000000000E+000
                   105 -1.464686216065062E-005
                   106  0.000000000000000E+000
                   107  0.000000000000000E+000
                   108 -4.366405751954788E-005
                   109 -6.812390439940079E-006
                   110  1.723997034773825E-005
                   111  0.000000000000000E+000
                   112  0.000000000000000E+000
                   113 -1.052529739021635E-004
                   114  9.035719853776105E-005
                   115  0.000000000000000E+000
                   116 -1.563109011396752E-005
                   117 -2.410384261963280E-005
                   118  0.000000000000000E+000
                   119  0.000000000000000E+000
                   120  5.670673295100034E-006
                   121 -6.668457212673074E-005
                   122 -1.773491885760959E-004
                   123 -4.302749394174933E-004
                   124  1.358730877419995E-004
                   125  1.783939754766956E-004
                   126 -2.329802933019365E-005
                   127 -2.624679244411499E-004
                   128  0.000000000000000E+000
                   129  1.617150004254645E-004
                   130  4.604824631337970E-004
                   131  0.000000000000000E+000
                   132  1.820000964284589E-004
                   133  1.142617569049815E-003
                   134  0.000000000000000E+000
                   135  1.387247648208674E-005
                   136  0.000000000000000E+000
                   137  0.000000000000000E+000
                   138  3.736253778417806E-005
                   139 -6.780405900656879E-006
                   140  1.483089397779298E-004
                   141  0.000000000000000E+000
                   142  0.000000000000000E+000
                   143  2.618905964937796E-004
                   144  1.287355582928164E-004
                   145  0.000000000000000E+000
                   146 -1.000677932891957E-005
                   147 -4.585531163004735E-005
                   148  0.000000000000000E+000
                   149  0.000000000000000E+000
                   150  2.488209364805048E-006
                   151 -4.388676399055593E-005
                   152 -1.273895989323964E-004
                   153 -2.873120050243918E-004
                   154  6.700940523107708E-005
                   155  1.777517799848545E-004
                   156 -7.008871427653198E-007
                   157 -2.042953122231351E-004
                   158  0.000000000000000E+000
                   159 -7.553636077496999E-005
                   160  1.444993169952243E-004
                   161  0.000000000000000E+000
                   162  4.614775963221916E-004
                   163  1.230174225911593E-004
                   164  0.000000000000000E+000
                   165  2.173843144887812E-006
                   166  0.000000000000000E+000
                   167  0.000000000000000E+000
                   168  1.074040962686849E-005
                   169  8.909909355298545E-006
                   170  1.087777570705489E-004
                   171  0.000000000000000E+000
                   172  0.000000000000000E+000
                   173  8.381212319937056E-005
                   174 -1.273248553435608E-005
                   175  0.000000000000000E+000
                   176  5.360531258824614E-006
                   177 -1.960618789645033E-005
                   178  0.000000000000000E+000
                   179  0.000000000000000E+000
                   180 -1.796284761019836E-005
                   181 -2.842289181478448E-005
                   182 -1.081495803708836E-004
                   183 -3.166264201267323E-004
                   184  2.922401267323328E-005
                   185  1.646127593205307E-004
                   186 -1.723803710982588E-005
                   187 -4.196853144134222E-005
                   188  0.000000000000000E+000
                   189  1.252834286469483E-004
                   190  7.149029376093396E-005
                   191  0.000000000000000E+000
                   192  5.903363787960439E-004
                   193 -1.650650344412671E-004
                   194  0.000000000000000E+000
                   195 -9.110779891709257E-007
                   196  0.000000000000000E+000
                   197  0.000000000000000E+000
                   198 -8.202757266491718E-006
                   199  1.692668883595064E-006
                   200  8.473730149396961E-006
                   201  0.000000000000000E+000
                   202  0.000000000000000E+000
                   203 -5.830937464552316E-005
                   204 -8.915260821921592E-005
                   205  0.000000000000000E+000
                   206 -4.047342243157224E-006
                   207 -4.420960088183382E-006
                   208  0.000000000000000E+000
                   209  0.000000000000000E+000
                   210  2.914237424113628E-006
                   211 -2.625620647154104E-006
                   212 -4.592135847575479E-004
                   213  9.910241548269606E-006
                   214  6.132155636942246E-006
                   215  3.889356728759243E-005
                   216  0.000000000000000E+000
                   217 -8.399162886613019E-005
                   218 -7.875646443491547E-004
                   219 -2.110212111777917E-004
                   220  7.950195933433514E-005
                   221  0.000000000000000E+000
                   222 -2.072084009030704E-004
                   223 -4.929217993050532E-004
                   224  3.965412458728307E-006
                   225 -4.737114535668843E-005
                   226  0.000000000000000E+000
                   227 -7.460530994560555E-005
                   228 -3.864350898845629E-004
                   229 -1.661872099802871E-005
                   230 -2.366383968185889E-005
                   231  0.000000000000000E+000
                   232  2.381515677818137E-006
                   233 -3.489332087889040E-004
                   234  9.955138779746211E-006
                   235 -2.335114447951424E-006
                   236  0.000000000000000E+000
                   237 -2.882388524426002E-005
                   238 -3.615628703024826E-004
                   239 -8.462531801570067E-006
                   240 -6.242540169710727E-006
                   241  0.000000000000000E+000
                   242 -1.752053352855348E-005
                   243  5.912420613146711E-006
                   244 -1.647344674835692E-007
                   245  1.917964340229132E-005
                   246  0.000000000000000E+000
 Sym= __2_A__
 Ene=   2.00000000000000     
 Spin= Alpha
 Occup=    1.00000000000000     
                     1 -4.832986725650967E-005
                     2 -3.037252841773998E-004
                     3  2.525192079937395E-003
                     4  1.338842879023034E-004
                     5  1.383845131187412E-003
                     6 -1.807559729674806E-004
                     7  2.612204998758876E-003
                     8  0.000000000000000E+000
                     9 -6.936577864961042E-005
                    10 -1.275150007748743E-004
                    11  0.000000000000000E+000
                    12 -9.907703099222407E-006
                    13 -3.639242402534682E-004
                    14  0.000000000000000E+000
                    15  3.227135981667827E-005
                    16  0.000000000000000E+000
                    17  0.000000000000000E+000
                    18 -3.407425690993682E-005
                    19  1.039533312917934E-005
                    20 -8.965716025350881E-005
                    21  0.000000000000000E+000
                    22  0.000000000000000E+000
                    23  2.183102724720014E-004
                    24 -1.139519693482346E-004
                    25  0.000000000000000E+000
                    26 -2.138108708100332E-005
                    27  1.131405784110263E-004
                    28  0.000000000000000E+000
                    29  0.000000000000000E+000
                    30 -6.029364966835088E-005
                    31  1.766383707844266E-004
                    32   1.00099072319895     
                    33  9.043781747802654E-003
                    34  2.771278466804861E-003
                    35 -7.829444804427207E-003
                    36 -1.435397553218004E-005
                    37 -4.003888327141331E-003
                    38  0.000000000000000E+000
                    39 -1.831301820111280E-004
                    40  1.220942400069207E-003
                    41  0.000000000000000E+000
                    42 -1.166937174734361E-004
                    43  4.357503293895321E-003
                    44  0.000000000000000E+000
                    45 -5.993618736883659E-004
                    46  0.000000000000000E+000
                    47  0.000000000000000E+000
                    48 -2.377596263724908E-004
                    49  1.782811141074114E-005
                    50  5.360991319243202E-004
                    51  0.000000000000000E+000
                    52  0.000000000000000E+000
                    53 -5.689756945513850E-004
                    54 -2.882919031489579E-004
                    55  0.000000000000000E+000
                    56  1.142556625833389E-005
                    57  7.688920063860332E-005
                    58  0.000000000000000E+000
                    59  0.000000000000000E+000
                    60 -2.720441772773091E-005
                    61  4.356406581883180E-004
                    62  8.009118379749556E-003
                    63 -2.048710375977954E-003
                    64 -2.232283436529404E-004
                    65  2.705355982439591E-003
                    66  1.119840482328756E-004
                    67 -7.777242217201917E-006
                    68  0.000000000000000E+000
                    69  4.149936731567638E-004
                    70  2.241657223686833E-004
                    71  0.000000000000000E+000
                    72 -2.087609373591098E-003
                    73  3.171981172174118E-004
                    74  0.000000000000000E+000
                    75  4.885526885314304E-005
                    76  0.000000000000000E+000
                    77  0.000000000000000E+000
                    78 -5.364612297574512E-006
                    79  2.350990313741172E-005
                    80 -4.089183527000801E-004
                    81  0.000000000000000E+000
                    82  0.000000000000000E+000
                    83 -6.984922171646096E-004
                    84 -2.405795020885316E-004
                    85  0.000000000000000E+000
                    86  3.393265595737371E-005
                    87 -5.866653940931571E-005
                    88  0.000000000000000E+000
                    89  0.000000000000000E+000
                    90  4.134079645740413E-005
                    91  1.482223713421850E-004
                    92  9.250854774188036E-003
                    93 -2.095377381085295E-003
                    94 -2.806716497473123E-004
                    95  3.108368420793232E-003
                    96 -1.605613421323565E-005
                    97 -9.216188389638765E-006
                    98  0.000000000000000E+000
                    99 -7.411633016879424E-004
                   100  1.236889800077338E-004
                   101  0.000000000000000E+000
                   102  1.799559629040535E-003
                   103  9.127503375676719E-005
                   104  0.000000000000000E+000
                   105  3.814946870361395E-005
                   106  0.000000000000000E+000
                   107  0.000000000000000E+000
                   108 -4.410391250076114E-006
                   109 -1.346430271614384E-005
                   110 -4.126982741052779E-004
                   111  0.000000000000000E+000
                   112  0.000000000000000E+000
                   113 -4.904578063760398E-004
                   114  2.753138988763328E-004
                   115  0.000000000000000E+000
                   116 -3.237748868995413E-005
                   117 -6.598489593661187E-005
                   118  0.000000000000000E+000
                   119  0.000000000000000E+000
                   120 -2.244958703166162E-005
                   121  1.346357242048463E-004
                   122 -2.517162735397525E-004
                   123 -7.699986819808956E-004
                   124  2.356215374154833E-004
                   125 -1.471771967196179E-004
                   126 -1.291959786696896E-005
                   127 -2.965654024824476E-004
                   128  0.000000000000000E+000
                   129 -4.780411582861249E-005
                   130  6.206290108067503E-004
                   131  0.000000000000000E+000
                   132  3.785942552901662E-004
                   133  8.509643485006881E-004
                   134  0.000000000000000E+000
                   135  2.175053552711616E-005
                   136  0.000000000000000E+000
                   137  0.000000000000000E+000
                   138  6.365088023145552E-006
                   139  4.422839807407827E-005
                   140  1.227032887956828E-004
                   141  0.000000000000000E+000
                   142  0.000000000000000E+000
                   143  2.815661473453608E-004
                   144 -1.506809247273785E-004
                   145  0.000000000000000E+000
                   146  6.137378432658994E-006
                   147 -3.280310741189319E-005
                   148  0.000000000000000E+000
                   149  0.000000000000000E+000
                   150 -3.955078497642064E-005
                   151  2.978582543382700E-005
                   152 -2.139364758411088E-004
                   153 -7.529945824836682E-004
                   154  2.400208551393794E-004
                   155 -9.938775745667535E-005
                   156 -1.197396828421400E-005
                   157 -2.961882673363043E-004
                   158  0.000000000000000E+000
                   159  9.425350566364529E-005
                   160  5.572294360999206E-004