[Molden Format]
[Atoms] AU
  N     1    7    -0.1266953200   -4.3372225400    0.0000000000        
  C     2    6     0.0027806400   -1.8069546000    0.0000000000        
  C     3    6    -2.2906629400   -0.4252438100    0.0000000000        
  C     4    6     2.3185652300   -0.4043813000    0.0000000000        
  C     5    6    -2.2782918100    2.1680279100    0.0000000000        
  C     6    6     2.3094582600    2.1764919700    0.0000000000        
  C     7    6     0.0148444900    3.4966288100    0.0000000000        
  H     8    1    -4.3028254600   -7.5862227300    0.0000000000        
  H     9    1     1.6888592600   -5.0703662700    0.0000000000        
  H    10    1    -4.0284023400   -1.4672723900    0.0000000000        
  H    11    1     4.0748450700   -1.4238400000    0.0000000000        
  H    12    1    -4.0271380100    3.1959799800    0.0000000000        
  H    13    1     4.0551613000    3.2103876400    0.0000000000        
  H    14    1     0.0124314300    5.5245646400    0.0000000000        
[5D]
[7F]
[GTO]
  1  0
   s    12 1.00
  0.114200D+05  0.172695D-04
  0.171200D+04  0.134411D-03
  0.389300D+03  0.694561D-03
  0.110000D+03  0.278531D-02
  0.355700D+02  0.863457D-02
  0.125400D+02  0.199805D-01
  0.464400D+01  0.262908D-01
  0.129300D+01 -0.243845D-01
  0.511800D+00 -0.924934D-01
  0.178700D+00 -0.339683D+00
  0.246240D-01  0.345111D+00
  0.112530D-01  0.752750D+00
   s    10 1.00
  0.114200D+05  0.523000D-03
  0.171200D+04  0.404500D-02
  0.389300D+03  0.207750D-01
  0.110000D+03  0.807269D-01
  0.355700D+02  0.233074D+00
  0.125400D+02  0.433501D+00
  0.464400D+01  0.347472D+00
  0.129300D+01  0.412620D-01
  0.511800D+00 -0.850799D-02
  0.178700D+00  0.238400D-02
   s    10 1.00
  0.114200D+05 -0.115000D-03
  0.171200D+04 -0.895000D-03
  0.389300D+03 -0.462400D-02
  0.110000D+03 -0.185280D-01
  0.355700D+02 -0.573390D-01
  0.125400D+02 -0.132076D+00
  0.464400D+01 -0.172510D+00
  0.129300D+01  0.151814D+00
  0.511800D+00  0.599944D+00
  0.178700D+00  0.387462D+00
   s     1 1.00
  0.129300D+01  0.100000D+01
   s     1 1.00
  0.178700D+00  0.100000D+01
   p     5 1.00
  0.266300D+02  0.146700D-01
  0.594800D+01  0.917640D-01
  0.174200D+01  0.298683D+00
  0.555000D+00  0.498487D+00
  0.172500D+00  0.337023D+00
   p     1 1.00
  0.174200D+01  0.100000D+01
   p     1 1.00
  0.555000D+00  0.100000D+01
   d     1 1.00
  0.165400D+01  0.100000D+01
   d     1 1.00
  0.469000D+00  0.100000D+01
   f     1 1.00
  0.109300D+01  0.100000D+01
  
  2  0
   s    10 1.00
  0.823600D+04  0.531000D-03
  0.123500D+04  0.410800D-02
  0.280800D+03  0.210870D-01
  0.792700D+02  0.818530D-01
  0.255900D+02  0.234817D+00
  0.899700D+01  0.434401D+00
  0.331900D+01  0.346129D+00
  0.905900D+00  0.393780D-01
  0.364300D+00 -0.898300D-02
  0.128500D+00  0.238500D-02
   s    10 1.00
  0.823600D+04 -0.113000D-03
  0.123500D+04 -0.878000D-03
  0.280800D+03 -0.454000D-02
  0.792700D+02 -0.181330D-01
  0.255900D+02 -0.557600D-01
  0.899700D+01 -0.126895D+00
  0.331900D+01 -0.170352D+00
  0.905900D+00  0.140382D+00
  0.364300D+00  0.598684D+00
  0.128500D+00  0.395389D+00
   s     1 1.00
  0.905900D+00  0.100000D+01
   s     1 1.00
  0.364300D+00  0.100000D+01
   p     5 1.00
  0.187100D+02  0.140310D-01
  0.413300D+01  0.868660D-01
  0.120000D+01  0.290216D+00
  0.382700D+00  0.501008D+00
  0.120900D+00  0.343406D+00
   p     1 1.00
  0.382700D+00  0.100000D+01
   p     1 1.00
  0.120900D+00  0.100000D+01
   d     1 1.00
  0.109700D+01  0.100000D+01
   d     1 1.00
  0.318000D+00  0.100000D+01
   f     1 1.00
  0.761000D+00  0.100000D+01
  
  3  0
   s    10 1.00
  0.823600D+04  0.531000D-03
  0.123500D+04  0.410800D-02
  0.280800D+03  0.210870D-01
  0.792700D+02  0.818530D-01
  0.255900D+02  0.234817D+00
  0.899700D+01  0.434401D+00
  0.331900D+01  0.346129D+00
  0.905900D+00  0.393780D-01
  0.364300D+00 -0.898300D-02
  0.128500D+00  0.238500D-02
   s    10 1.00
  0.823600D+04 -0.113000D-03
  0.123500D+04 -0.878000D-03
  0.280800D+03 -0.454000D-02
  0.792700D+02 -0.181330D-01
  0.255900D+02 -0.557600D-01
  0.899700D+01 -0.126895D+00
  0.331900D+01 -0.170352D+00
  0.905900D+00  0.140382D+00
  0.364300D+00  0.598684D+00
  0.128500D+00  0.395389D+00
   s     1 1.00
  0.905900D+00  0.100000D+01
   s     1 1.00
  0.364300D+00  0.100000D+01
   p     5 1.00
  0.187100D+02  0.140310D-01
  0.413300D+01  0.868660D-01
  0.120000D+01  0.290216D+00
  0.382700D+00  0.501008D+00
  0.120900D+00  0.343406D+00
   p     1 1.00
  0.382700D+00  0.100000D+01
   p     1 1.00
  0.120900D+00  0.100000D+01
   d     1 1.00
  0.109700D+01  0.100000D+01
   d     1 1.00
  0.318000D+00  0.100000D+01
   f     1 1.00
  0.761000D+00  0.100000D+01
  
  4  0
   s    10 1.00
  0.823600D+04  0.531000D-03
  0.123500D+04  0.410800D-02
  0.280800D+03  0.210870D-01
  0.792700D+02  0.818530D-01
  0.255900D+02  0.234817D+00
  0.899700D+01  0.434401D+00
  0.331900D+01  0.346129D+00
  0.905900D+00  0.393780D-01
  0.364300D+00 -0.898300D-02
  0.128500D+00  0.238500D-02
   s    10 1.00
  0.823600D+04 -0.113000D-03
  0.123500D+04 -0.878000D-03
  0.280800D+03 -0.454000D-02
  0.792700D+02 -0.181330D-01
  0.255900D+02 -0.557600D-01
  0.899700D+01 -0.126895D+00
  0.331900D+01 -0.170352D+00
  0.905900D+00  0.140382D+00
  0.364300D+00  0.598684D+00
  0.128500D+00  0.395389D+00
   s     1 1.00
  0.905900D+00  0.100000D+01
   s     1 1.00
  0.364300D+00  0.100000D+01
   p     5 1.00
  0.187100D+02  0.140310D-01
  0.413300D+01  0.868660D-01
  0.120000D+01  0.290216D+00
  0.382700D+00  0.501008D+00
  0.120900D+00  0.343406D+00
   p     1 1.00
  0.382700D+00  0.100000D+01
   p     1 1.00
  0.120900D+00  0.100000D+01
   d     1 1.00
  0.109700D+01  0.100000D+01
   d     1 1.00
  0.318000D+00  0.100000D+01
   f     1 1.00
  0.761000D+00  0.100000D+01
  
  5  0
   s    10 1.00
  0.823600D+04  0.531000D-03
  0.123500D+04  0.410800D-02
  0.280800D+03  0.210870D-01
  0.792700D+02  0.818530D-01
  0.255900D+02  0.234817D+00
  0.899700D+01  0.434401D+00
  0.331900D+01  0.346129D+00
  0.905900D+00  0.393780D-01
  0.364300D+00 -0.898300D-02
  0.128500D+00  0.238500D-02
   s    10 1.00
  0.823600D+04 -0.113000D-03
  0.123500D+04 -0.878000D-03
  0.280800D+03 -0.454000D-02
  0.792700D+02 -0.181330D-01
  0.255900D+02 -0.557600D-01
  0.899700D+01 -0.126895D+00
  0.331900D+01 -0.170352D+00
  0.905900D+00  0.140382D+00
  0.364300D+00  0.598684D+00
  0.128500D+00  0.395389D+00
   s     1 1.00
  0.905900D+00  0.100000D+01
   s     1 1.00
  0.364300D+00  0.100000D+01
   p     5 1.00
  0.187100D+02  0.140310D-01
  0.413300D+01  0.868660D-01
  0.120000D+01  0.290216D+00
  0.382700D+00  0.501008D+00
  0.120900D+00  0.343406D+00
   p     1 1.00
  0.382700D+00  0.100000D+01
   p     1 1.00
  0.120900D+00  0.100000D+01
   d     1 1.00
  0.109700D+01  0.100000D+01
   d     1 1.00
  0.318000D+00  0.100000D+01
   f     1 1.00
  0.761000D+00  0.100000D+01
  
  6  0
   s    10 1.00
  0.823600D+04  0.531000D-03
  0.123500D+04  0.410800D-02
  0.280800D+03  0.210870D-01
  0.792700D+02  0.818530D-01
  0.255900D+02  0.234817D+00
  0.899700D+01  0.434401D+00
  0.331900D+01  0.346129D+00
  0.905900D+00  0.393780D-01
  0.364300D+00 -0.898300D-02
  0.128500D+00  0.238500D-02
   s    10 1.00
  0.823600D+04 -0.113000D-03
  0.123500D+04 -0.878000D-03
  0.280800D+03 -0.454000D-02
  0.792700D+02 -0.181330D-01
  0.255900D+02 -0.557600D-01
  0.899700D+01 -0.126895D+00
  0.331900D+01 -0.170352D+00
  0.905900D+00  0.140382D+00
  0.364300D+00  0.598684D+00
  0.128500D+00  0.395389D+00
   s     1 1.00
  0.905900D+00  0.100000D+01
   s     1 1.00
  0.364300D+00  0.100000D+01
   p     5 1.00
  0.187100D+02  0.140310D-01
  0.413300D+01  0.868660D-01
  0.120000D+01  0.290216D+00
  0.382700D+00  0.501008D+00
  0.120900D+00  0.343406D+00
   p     1 1.00
  0.382700D+00  0.100000D+01
   p     1 1.00
  0.120900D+00  0.100000D+01
   d     1 1.00
  0.109700D+01  0.100000D+01
   d     1 1.00
  0.318000D+00  0.100000D+01
   f     1 1.00
  0.761000D+00  0.100000D+01
  
  7  0
   s    10 1.00
  0.823600D+04  0.531000D-03
  0.123500D+04  0.410800D-02
  0.280800D+03  0.210870D-01
  0.792700D+02  0.818530D-01
  0.255900D+02  0.234817D+00
  0.899700D+01  0.434401D+00
  0.331900D+01  0.346129D+00
  0.905900D+00  0.393780D-01
  0.364300D+00 -0.898300D-02
  0.128500D+00  0.238500D-02
   s    10 1.00
  0.823600D+04 -0.113000D-03
  0.123500D+04 -0.878000D-03
  0.280800D+03 -0.454000D-02
  0.792700D+02 -0.181330D-01
  0.255900D+02 -0.557600D-01
  0.899700D+01 -0.126895D+00
  0.331900D+01 -0.170352D+00
  0.905900D+00  0.140382D+00
  0.364300D+00  0.598684D+00
  0.128500D+00  0.395389D+00
   s     1 1.00
  0.905900D+00  0.100000D+01
   s     1 1.00
  0.364300D+00  0.100000D+01
   p     5 1.00
  0.187100D+02  0.140310D-01
  0.413300D+01  0.868660D-01
  0.120000D+01  0.290216D+00
  0.382700D+00  0.501008D+00
  0.120900D+00  0.343406D+00
   p     1 1.00
  0.382700D+00  0.100000D+01
   p     1 1.00
  0.120900D+00  0.100000D+01
   d     1 1.00
  0.109700D+01  0.100000D+01
   d     1 1.00
  0.318000D+00  0.100000D+01
   f     1 1.00
  0.761000D+00  0.100000D+01
  
  8  0
   s     4 1.00
  0.130100D+02  0.196850D-01
  0.196200D+01  0.137977D+00
  0.444600D+00  0.478148D+00
  0.122000D+00  0.501240D+00
   s     1 1.00
  0.122000D+00  0.100000D+01
   p     1 1.00
  0.727000D+00  0.100000D+01
  
  9  0
   s     4 1.00
  0.130100D+02  0.196850D-01
  0.196200D+01  0.137977D+00
  0.444600D+00  0.478148D+00
  0.122000D+00  0.501240D+00
   s     1 1.00
  0.122000D+00  0.100000D+01
   p     1 1.00
  0.727000D+00  0.100000D+01
  
 10  0
   s     4 1.00
  0.130100D+02  0.196850D-01
  0.196200D+01  0.137977D+00
  0.444600D+00  0.478148D+00
  0.122000D+00  0.501240D+00
   s     1 1.00
  0.122000D+00  0.100000D+01
   p     1 1.00
  0.727000D+00  0.100000D+01
  
 11  0
   s     4 1.00
  0.130100D+02  0.196850D-01
  0.196200D+01  0.137977D+00
  0.444600D+00  0.478148D+00
  0.122000D+00  0.501240D+00
   s     1 1.00
  0.122000D+00  0.100000D+01
   p     1 1.00
  0.727000D+00  0.100000D+01
  
 12  0
   s     4 1.00
  0.130100D+02  0.196850D-01
  0.196200D+01  0.137977D+00
  0.444600D+00  0.478148D+00
  0.122000D+00  0.501240D+00
   s     1 1.00
  0.122000D+00  0.100000D+01
   p     1 1.00
  0.727000D+00  0.100000D+01
  
 13  0
   s     4 1.00
  0.130100D+02  0.196850D-01
  0.196200D+01  0.137977D+00
  0.444600D+00  0.478148D+00
  0.122000D+00  0.501240D+00
   s     1 1.00
  0.122000D+00  0.100000D+01
   p     1 1.00
  0.727000D+00  0.100000D+01
  
 14  0
   s     4 1.00
  0.130100D+02  0.196850D-01
  0.196200D+01  0.137977D+00
  0.444600D+00  0.478148D+00
  0.122000D+00  0.501240D+00
   s     1 1.00
  0.122000D+00  0.100000D+01
   p     1 1.00
  0.727000D+00  0.100000D+01
  
[MO]
 Sym= __1_a__
 Ene=  0.000000000000000E+000
 Spin= Alpha
 Occup=    2.00000000000000     
                     1  8.048762114968531E-005
                     2  0.998377564650572     
                     3 -1.243455744453880E-002
                     4  1.947953197158100E-003
                     5  7.697346922266610E-003
                     6  9.390485642238120E-004
                     7  6.941243951873780E-003
                     8  0.000000000000000E+000
                     9 -8.604285563978560E-004
                    10 -7.535907451590110E-004
                    11  0.000000000000000E+000
                    12 -2.394858614848320E-003
                    13 -2.284794367976130E-003
                    14  0.000000000000000E+000
                    15  3.588936961623317E-005
                    16  0.000000000000000E+000
                    17  0.000000000000000E+000
                    18 -1.852595367499412E-004
                    19  2.153475619770260E-005
                    20  9.129395581674961E-005
                    21  0.000000000000000E+000
                    22  0.000000000000000E+000
                    23 -9.626624035910460E-005
                    24  4.248251196358730E-004
                    25  0.000000000000000E+000
                    26  1.709463558738521E-005
                    27 -4.152479321661510E-005
                    28  0.000000000000000E+000
                    29  0.000000000000000E+000
                    30  4.512849597952159E-005
                    31 -4.468096560165230E-005
                    32 -2.298829766609410E-004
                    33  7.062627198239500E-004
                    34  2.865880577085410E-004
                    35  4.456860295362790E-005
                    36  2.354258448531750E-003
                    37  2.350505543920390E-004
                    38  0.000000000000000E+000
                    39  6.744764587529260E-005
                    40 -2.267099949491790E-004
                    41  0.000000000000000E+000
                    42 -1.885828341328880E-003
                    43  4.581840129049260E-003
                    44  0.000000000000000E+000
                    45  2.218468908024877E-005
                    46  0.000000000000000E+000
                    47  0.000000000000000E+000
                    48  2.911229818838000E-005
                    49  1.189994166685190E-004
                    50 -1.656651379771824E-004
                    51  0.000000000000000E+000
                    52  0.000000000000000E+000
                    53  2.096614553567740E-005
                    54  6.753810111949450E-004
                    55  0.000000000000000E+000
                    56 -1.774629978118812E-005
                    57 -9.859134428162809E-005
                    58  0.000000000000000E+000
                    59  0.000000000000000E+000
                    60 -3.397235152007802E-006
                    61 -1.168747650872765E-004
                    62 -5.542039699238760E-004
                    63 -2.284461733453400E-003
                    64 -5.885071558853190E-005
                    65  2.098765909433100E-003
                    66 -1.016574671793020E-003
                    67 -9.819596792458750E-005
                    68  0.000000000000000E+000
                    69  3.369323611703490E-004
                    70  8.551086008367720E-004
                    71  0.000000000000000E+000
                    72 -1.679662308046990E-003
                    73  2.483096667060970E-004
                    74  0.000000000000000E+000
                    75 -3.944541170298810E-005
                    76  0.000000000000000E+000
                    77  0.000000000000000E+000
                    78 -1.788537279751548E-005
                    79  1.762489715554400E-005
                    80 -1.164307570547174E-004
                    81  0.000000000000000E+000
                    82  0.000000000000000E+000
                    83 -5.335995966672720E-005
                    84 -9.517646530213899E-005
                    85  0.000000000000000E+000
                    86  1.504895928247340E-005
                    87 -4.462280596015102E-005
                    88  0.000000000000000E+000
                    89  0.000000000000000E+000
                    90 -2.984243272335846E-005
                    91 -1.452728706227425E-004
                    92 -2.007927386490620E-004
                    93  9.403409111651770E-004
                    94  7.644568077109761E-005
                    95  1.224641989784740E-004
                    96 -1.722022351793590E-003
                    97 -2.631784944420040E-003
                    98  0.000000000000000E+000
                    99  2.974316465327750E-004
                   100  5.172059793109389E-004
                   101  0.000000000000000E+000
                   102  1.149740619446340E-003
                   103 -8.791481292498710E-004
                   104  0.000000000000000E+000
                   105 -4.713783557750356E-005
                   106  0.000000000000000E+000
                   107  0.000000000000000E+000
                   108  3.586552895253680E-005
                   109  6.206791016540700E-005
                   110  2.147201415127175E-005
                   111  0.000000000000000E+000
                   112  0.000000000000000E+000
                   113 -7.924767810512000E-005
                   114  2.891018885953630E-004
                   115  0.000000000000000E+000
                   116  3.270341641199079E-006
                   117 -6.217497889544380E-006
                   118  0.000000000000000E+000
                   119  0.000000000000000E+000
                   120 -6.636655392439296E-007
                   121 -8.247132454653662E-005
                   122 -2.450254498910480E-004
                   123 -7.510193035223850E-004
                   124  1.686523431582860E-004
                   125  2.850922528933090E-004
                   126  8.662203289410260E-005
                   127  7.756270110000890E-005
                   128  0.000000000000000E+000
                   129  2.587424611049430E-004
                   130  6.101717502006490E-004
                   131  0.000000000000000E+000
                   132  2.875980229772780E-004
                   133  1.533453943359040E-003
                   134  0.000000000000000E+000
                   135  1.545644327629018E-005
                   136  0.000000000000000E+000
                   137  0.000000000000000E+000
                   138  5.324925842487680E-005
                   139  1.043113815248900E-005
                   140  1.963914652441312E-004
                   141  0.000000000000000E+000
                   142  0.000000000000000E+000
                   143  3.933349227265260E-004
                   144  1.544929404814370E-004
                   145  0.000000000000000E+000
                   146 -1.493820918671636E-005
                   147 -5.953352406051838E-005
                   148  0.000000000000000E+000
                   149  0.000000000000000E+000
                   150 -3.673270026599171E-006
                   151 -5.672730182571175E-005
                   152 -1.364166721894710E-004
                   153 -1.185931493644670E-003
                   154  7.410454339120309E-005
                   155  2.542543454230570E-004
                   156  3.259749244452310E-004
                   157  1.428089003902420E-003
                   158  0.000000000000000E+000
                   159 -1.189687529186830E-004
                   160 -1.056400215838920E-005
                   161  0.000000000000000E+000
                   162  5.983824648683271E-004
                   163 -1.044513147335870E-004
                   164  0.000000000000000E+000
                   165  1.375718548425369E-005
                   166  0.000000000000000E+000
                   167  0.000000000000000E+000
                   168  5.110770296331080E-005
                   169  4.800448528790560E-005
                   170  1.482206859994918E-004
                   171  0.000000000000000E+000
                   172  0.000000000000000E+000
                   173  1.101945774132990E-004
                   174  6.081074145446900E-005
                   175  0.000000000000000E+000
                   176  5.934266449480818E-006
                   177 -3.024724315722585E-005
                   178  0.000000000000000E+000
                   179  0.000000000000000E+000
                   180 -3.332963820765826E-005
                   181 -5.387281572780230E-005
                   182 -1.306245363698720E-004
                   183 -3.565267981280520E-004
                   184  3.012617024985950E-005
                   185  2.194326371131640E-004
                   186 -1.753756302783830E-004
                   187 -1.749742583110610E-004
                   188  0.000000000000000E+000
                   189  2.208908681482770E-004
                   190  1.453113874266300E-004
                   191  0.000000000000000E+000
                   192  8.455065684729510E-004
                   193 -3.976294240709920E-004
                   194  0.000000000000000E+000
                   195 -8.854646946740281E-008
                   196  0.000000000000000E+000
                   197  0.000000000000000E+000
                   198  1.920427044095466E-005
                   199  1.308603696668950E-005
                   200 -4.095154880760422E-006
                   201  0.000000000000000E+000
                   202  0.000000000000000E+000
                   203 -5.803827483636640E-005
                   204 -1.357148881892320E-004
                   205  0.000000000000000E+000
                   206 -8.501827368958571E-006
                   207 -4.457018842615132E-006
                   208  0.000000000000000E+000
                   209  0.000000000000000E+000
                   210  3.035593624283841E-006
                   211 -1.882175287402087E-006
                   212 -1.859557269491940E-005
                   213  1.053094112595070E-004
                   214  1.623222230374030E-005
                   215  2.253284115106730E-005
                   216  0.000000000000000E+000
                   217 -6.758565485829320E-003
                   218  1.983880040329630E-003
                   219  2.149344490572250E-004
                   220 -1.143329345509120E-004
                   221  0.000000000000000E+000
                   222  5.955466739358790E-004
                   223 -8.485552193202130E-004
                   224  4.030710450545560E-005
                   225 -2.546478055805330E-005
                   226  0.000000000000000E+000
                   227  3.207262623942000E-004
                   228 -9.503478513197930E-004
                   229 -8.759548862535180E-005
                   230 -3.879965301729610E-005
                   231  0.000000000000000E+000
                   232 -4.251199278770760E-005
                   233 -4.576974597240800E-004
                   234  1.563264440019240E-005
                   235 -5.245567777205980E-006
                   236  0.000000000000000E+000
                   237  8.870295960290160E-004
                   238 -5.634735309708360E-004
                   239 -5.210048996089490E-005
                   240 -9.738935016867470E-006
                   241  0.000000000000000E+000
                   242 -3.028124435504180E-004
                   243  1.160616472677310E-004
                   244  1.401061676314070E-006
                   245  3.823268914837090E-005
                   246  0.000000000000000E+000
 Sym= __2_a__
 Ene=  0.000000000000000E+000
 Spin= Alpha
 Occup=    2.00000000000000     
                     1  4.241877301134580E-005
                     2  3.436894029660720E-004
                     3 -3.235219353932600E-003
                     4 -9.344229041565939E-005
                     5 -1.540890156337350E-003
                     6  9.646333521275150E-004
                     7 -3.942337571434810E-003
                     8  0.000000000000000E+000
                     9  3.143936410390410E-005
                    10  1.141479180029440E-004
                    11  0.000000000000000E+000
                    12  2.709703989632360E-006
                    13  2.495791274395940E-004
                    14  0.000000000000000E+000
                    15 -1.562034710563666E-005
                    16  0.000000000000000E+000
                    17  0.000000000000000E+000
                    18  8.398494236220440E-005
                    19 -3.252584063141080E-005
                    20  1.502363421504960E-004
                    21  0.000000000000000E+000
                    22  0.000000000000000E+000
                    23 -4.995511878146680E-005
                    24  1.421551393514190E-004
                    25  0.000000000000000E+000
                    26  1.460568330645529E-005
                    27 -8.590744659781297E-005
                    28  0.000000000000000E+000
                    29  0.000000000000000E+000
                    30  7.135476064380225E-005
                    31 -1.538888811004010E-004
                    32  -1.00083646473378     
                    33 -9.575875476431300E-003
                    34 -2.957331593413070E-003
                    35  8.174536804443530E-003
                    36  2.134945708104410E-004
                    37  4.863596170151870E-003
                    38  0.000000000000000E+000
                    39  3.834528219377720E-004
                    40 -9.919516662664531E-004
                    41  0.000000000000000E+000
                    42  4.700818531806120E-005
                    43 -4.750042964511020E-003
                    44  0.000000000000000E+000
                    45  5.482359541735803E-004
                    46  0.000000000000000E+000
                    47  0.000000000000000E+000
                    48  2.212037323762640E-004
                    49 -2.981686750766220E-005
                    50 -5.538129991089494E-004
                    51  0.000000000000000E+000
                    52  0.000000000000000E+000
                    53  6.578510538780540E-004
                    54  5.016827436632210E-004
                    55  0.000000000000000E+000
                    56 -2.874415773502611E-005
                    57 -8.901037134703993E-005
                    58  0.000000000000000E+000
                    59  0.000000000000000E+000
                    60  4.421759987213164E-005
                    61 -4.047782215724988E-004
                    62 -1.126989775778000E-002
                    63  2.265052218927790E-003
                    64  2.054267705994660E-004
                    65 -2.674685704355650E-003
                    66  5.986930716289180E-005
                    67 -1.181845838800850E-004
                    68  0.000000000000000E+000
                    69 -3.383006729144070E-004
                    70 -2.620793532324400E-004
                    71  0.000000000000000E+000
                    72  2.204985991335030E-003
                    73 -3.398705803177130E-004
                    74  0.000000000000000E+000
                    75 -4.886871711814414E-005
                    76  0.000000000000000E+000
                    77  0.000000000000000E+000
                    78  2.514061353689800E-005
                    79 -2.154078963812330E-005
                    80  4.284922767347611E-004
                    81  0.000000000000000E+000
                    82  0.000000000000000E+000
                    83  8.037931531642000E-004
                    84  2.266808645702070E-004
                    85  0.000000000000000E+000
                    86 -3.375299077379533E-005
                    87  5.649975002069888E-005
                    88  0.000000000000000E+000
                    89  0.000000000000000E+000
                    90 -5.072021722537879E-005
                    91 -1.467690824589434E-004
                    92 -1.317590327882910E-002
                    93  2.280373196166970E-003
                    94  3.083103630532470E-004
                    95 -3.278283357915310E-003
                    96 -4.306275325150400E-004
                    97 -2.467025094933730E-004
                    98  0.000000000000000E+000
                    99  9.578772753643940E-004
                   100 -1.175881606860680E-005
                   101  0.000000000000000E+000
                   102 -1.835519554567350E-003
                   103  3.169803349505260E-006
                   104  0.000000000000000E+000
                   105 -2.556670327769372E-005
                   106  0.000000000000000E+000
                   107  0.000000000000000E+000
                   108  1.307697690345086E-005
                   109  4.720330766578680E-006
                   110  4.194669011993692E-004
                   111  0.000000000000000E+000
                   112  0.000000000000000E+000
                   113  4.242888128911180E-004
                   114 -3.039640037461490E-004
                   115  0.000000000000000E+000
                   116  3.374624367331489E-005
                   117  6.864029035414442E-005
                   118  0.000000000000000E+000
                   119  0.000000000000000E+000
                   120  2.270002063706779E-005
                   121 -1.351967953571107E-004
                   122  2.044802319617310E-004
                   123  6.913371015098600E-004
                   124 -2.411508895643880E-004
                   125  1.799845916985940E-004
                   126  1.410727815780280E-005
                   127  4.196265305690130E-004
                   128  0.000000000000000E+000
                   129  3.402483394461230E-005
                   130 -6.850839011442211E-004
                   131  0.000000000000000E+000
                   132 -3.815239415672200E-004
                   133 -9.525767494604340E-004
                   134  0.000000000000000E+000
                   135 -2.291510885923301E-005
                   136  0.000000000000000E+000
                   137  0.000000000000000E+000
                   138 -7.614550124373820E-006
                   139 -4.839734699068980E-005
                   140 -1.245029995292199E-004
                   141  0.000000000000000E+000
                   142  0.000000000000000E+000
                   143 -3.009495061723940E-004
                   144  1.236870644769570E-004
                   145  0.000000000000000E+000
                   146 -6.983119582130237E-006
                   147  3.372540433161588E-005
                   148  0.000000000000000E+000
                   149  0.000000000000000E+000
                   150  4.081153135534319E-005
                   151 -3.146880995810158E-005
                   152 -2.213603820198970E-005
                   153  6.491573913954950E-004
                   154 -2.345400316705270E-004
                   155  5.421629909439330E-005
                   156  6.455187052435211E-005
                   157  4.509151644187170E-004
                   158  0.000000000000000E+000
                   159 -1.335671469205370E-004
                   160 -5.389733193629110E-004