[Molden Format]
[Atoms] AU
  N     1    7     0.0228629600   -4.2630017900    0.0000000200        
  C     2    6     0.1261310400   -1.7225440700   -0.0000000100        
  C     3    6    -2.2156233700   -0.3667511900    0.0000000100        
  C     4    6     2.4120152100   -0.2639184400   -0.0000000300        
  C     5    6    -2.2378860700    2.2144333300   -0.0000000100        
  C     6    6     2.3407992200    2.3127472500    0.0000000000        
  C     7    6     0.0277794900    3.5831222100    0.0000000000        
  H     8    1    -4.1776521700   -7.4805818000    0.0000000300        
  H     9    1     1.8344876500   -4.9857947800    0.0000000000        
  H    10    1    -3.9360405800   -1.4345647000    0.0000000000        
  H    11    1     4.1890296500   -1.2452383300   -0.0000000300        
  H    12    1    -4.0043231700    3.2133125500   -0.0000000400        
  H    13    1     4.0661694300    3.3813175200    0.0000000300        
  H    14    1    -0.0149815000    5.6107866500    0.0000000100        
[5D]
[7F]
[GTO]
  1  0
   s    12 1.00
  0.114200D+05  0.172695D-04
  0.171200D+04  0.134411D-03
  0.389300D+03  0.694561D-03
  0.110000D+03  0.278531D-02
  0.355700D+02  0.863457D-02
  0.125400D+02  0.199805D-01
  0.464400D+01  0.262908D-01
  0.129300D+01 -0.243845D-01
  0.511800D+00 -0.924934D-01
  0.178700D+00 -0.339683D+00
  0.246240D-01  0.345111D+00
  0.112530D-01  0.752750D+00
   s    10 1.00
  0.114200D+05  0.523000D-03
  0.171200D+04  0.404500D-02
  0.389300D+03  0.207750D-01
  0.110000D+03  0.807269D-01
  0.355700D+02  0.233074D+00
  0.125400D+02  0.433501D+00
  0.464400D+01  0.347472D+00
  0.129300D+01  0.412620D-01
  0.511800D+00 -0.850799D-02
  0.178700D+00  0.238400D-02
   s    10 1.00
  0.114200D+05 -0.115000D-03
  0.171200D+04 -0.895000D-03
  0.389300D+03 -0.462400D-02
  0.110000D+03 -0.185280D-01
  0.355700D+02 -0.573390D-01
  0.125400D+02 -0.132076D+00
  0.464400D+01 -0.172510D+00
  0.129300D+01  0.151814D+00
  0.511800D+00  0.599944D+00
  0.178700D+00  0.387462D+00
   s     1 1.00
  0.129300D+01  0.100000D+01
   s     1 1.00
  0.178700D+00  0.100000D+01
   p     5 1.00
  0.266300D+02  0.146700D-01
  0.594800D+01  0.917640D-01
  0.174200D+01  0.298683D+00
  0.555000D+00  0.498487D+00
  0.172500D+00  0.337023D+00
   p     1 1.00
  0.174200D+01  0.100000D+01
   p     1 1.00
  0.555000D+00  0.100000D+01
   d     1 1.00
  0.165400D+01  0.100000D+01
   d     1 1.00
  0.469000D+00  0.100000D+01
   f     1 1.00
  0.109300D+01  0.100000D+01
  
  2  0
   s    10 1.00
  0.823600D+04  0.531000D-03
  0.123500D+04  0.410800D-02
  0.280800D+03  0.210870D-01
  0.792700D+02  0.818530D-01
  0.255900D+02  0.234817D+00
  0.899700D+01  0.434401D+00
  0.331900D+01  0.346129D+00
  0.905900D+00  0.393780D-01
  0.364300D+00 -0.898300D-02
  0.128500D+00  0.238500D-02
   s    10 1.00
  0.823600D+04 -0.113000D-03
  0.123500D+04 -0.878000D-03
  0.280800D+03 -0.454000D-02
  0.792700D+02 -0.181330D-01
  0.255900D+02 -0.557600D-01
  0.899700D+01 -0.126895D+00
  0.331900D+01 -0.170352D+00
  0.905900D+00  0.140382D+00
  0.364300D+00  0.598684D+00
  0.128500D+00  0.395389D+00
   s     1 1.00
  0.905900D+00  0.100000D+01
   s     1 1.00
  0.364300D+00  0.100000D+01
   p     5 1.00
  0.187100D+02  0.140310D-01
  0.413300D+01  0.868660D-01
  0.120000D+01  0.290216D+00
  0.382700D+00  0.501008D+00
  0.120900D+00  0.343406D+00
   p     1 1.00
  0.382700D+00  0.100000D+01
   p     1 1.00
  0.120900D+00  0.100000D+01
   d     1 1.00
  0.109700D+01  0.100000D+01
   d     1 1.00
  0.318000D+00  0.100000D+01
   f     1 1.00
  0.761000D+00  0.100000D+01
  
  3  0
   s    10 1.00
  0.823600D+04  0.531000D-03
  0.123500D+04  0.410800D-02
  0.280800D+03  0.210870D-01
  0.792700D+02  0.818530D-01
  0.255900D+02  0.234817D+00
  0.899700D+01  0.434401D+00
  0.331900D+01  0.346129D+00
  0.905900D+00  0.393780D-01
  0.364300D+00 -0.898300D-02
  0.128500D+00  0.238500D-02
   s    10 1.00
  0.823600D+04 -0.113000D-03
  0.123500D+04 -0.878000D-03
  0.280800D+03 -0.454000D-02
  0.792700D+02 -0.181330D-01
  0.255900D+02 -0.557600D-01
  0.899700D+01 -0.126895D+00
  0.331900D+01 -0.170352D+00
  0.905900D+00  0.140382D+00
  0.364300D+00  0.598684D+00
  0.128500D+00  0.395389D+00
   s     1 1.00
  0.905900D+00  0.100000D+01
   s     1 1.00
  0.364300D+00  0.100000D+01
   p     5 1.00
  0.187100D+02  0.140310D-01
  0.413300D+01  0.868660D-01
  0.120000D+01  0.290216D+00
  0.382700D+00  0.501008D+00
  0.120900D+00  0.343406D+00
   p     1 1.00
  0.382700D+00  0.100000D+01
   p     1 1.00
  0.120900D+00  0.100000D+01
   d     1 1.00
  0.109700D+01  0.100000D+01
   d     1 1.00
  0.318000D+00  0.100000D+01
   f     1 1.00
  0.761000D+00  0.100000D+01
  
  4  0
   s    10 1.00
  0.823600D+04  0.531000D-03
  0.123500D+04  0.410800D-02
  0.280800D+03  0.210870D-01
  0.792700D+02  0.818530D-01
  0.255900D+02  0.234817D+00
  0.899700D+01  0.434401D+00
  0.331900D+01  0.346129D+00
  0.905900D+00  0.393780D-01
  0.364300D+00 -0.898300D-02
  0.128500D+00  0.238500D-02
   s    10 1.00
  0.823600D+04 -0.113000D-03
  0.123500D+04 -0.878000D-03
  0.280800D+03 -0.454000D-02
  0.792700D+02 -0.181330D-01
  0.255900D+02 -0.557600D-01
  0.899700D+01 -0.126895D+00
  0.331900D+01 -0.170352D+00
  0.905900D+00  0.140382D+00
  0.364300D+00  0.598684D+00
  0.128500D+00  0.395389D+00
   s     1 1.00
  0.905900D+00  0.100000D+01
   s     1 1.00
  0.364300D+00  0.100000D+01
   p     5 1.00
  0.187100D+02  0.140310D-01
  0.413300D+01  0.868660D-01
  0.120000D+01  0.290216D+00
  0.382700D+00  0.501008D+00
  0.120900D+00  0.343406D+00
   p     1 1.00
  0.382700D+00  0.100000D+01
   p     1 1.00
  0.120900D+00  0.100000D+01
   d     1 1.00
  0.109700D+01  0.100000D+01
   d     1 1.00
  0.318000D+00  0.100000D+01
   f     1 1.00
  0.761000D+00  0.100000D+01
  
  5  0
   s    10 1.00
  0.823600D+04  0.531000D-03
  0.123500D+04  0.410800D-02
  0.280800D+03  0.210870D-01
  0.792700D+02  0.818530D-01
  0.255900D+02  0.234817D+00
  0.899700D+01  0.434401D+00
  0.331900D+01  0.346129D+00
  0.905900D+00  0.393780D-01
  0.364300D+00 -0.898300D-02
  0.128500D+00  0.238500D-02
   s    10 1.00
  0.823600D+04 -0.113000D-03
  0.123500D+04 -0.878000D-03
  0.280800D+03 -0.454000D-02
  0.792700D+02 -0.181330D-01
  0.255900D+02 -0.557600D-01
  0.899700D+01 -0.126895D+00
  0.331900D+01 -0.170352D+00
  0.905900D+00  0.140382D+00
  0.364300D+00  0.598684D+00
  0.128500D+00  0.395389D+00
   s     1 1.00
  0.905900D+00  0.100000D+01
   s     1 1.00
  0.364300D+00  0.100000D+01
   p     5 1.00
  0.187100D+02  0.140310D-01
  0.413300D+01  0.868660D-01
  0.120000D+01  0.290216D+00
  0.382700D+00  0.501008D+00
  0.120900D+00  0.343406D+00
   p     1 1.00
  0.382700D+00  0.100000D+01
   p     1 1.00
  0.120900D+00  0.100000D+01
   d     1 1.00
  0.109700D+01  0.100000D+01
   d     1 1.00
  0.318000D+00  0.100000D+01
   f     1 1.00
  0.761000D+00  0.100000D+01
  
  6  0
   s    10 1.00
  0.823600D+04  0.531000D-03
  0.123500D+04  0.410800D-02
  0.280800D+03  0.210870D-01
  0.792700D+02  0.818530D-01
  0.255900D+02  0.234817D+00
  0.899700D+01  0.434401D+00
  0.331900D+01  0.346129D+00
  0.905900D+00  0.393780D-01
  0.364300D+00 -0.898300D-02
  0.128500D+00  0.238500D-02
   s    10 1.00
  0.823600D+04 -0.113000D-03
  0.123500D+04 -0.878000D-03
  0.280800D+03 -0.454000D-02
  0.792700D+02 -0.181330D-01
  0.255900D+02 -0.557600D-01
  0.899700D+01 -0.126895D+00
  0.331900D+01 -0.170352D+00
  0.905900D+00  0.140382D+00
  0.364300D+00  0.598684D+00
  0.128500D+00  0.395389D+00
   s     1 1.00
  0.905900D+00  0.100000D+01
   s     1 1.00
  0.364300D+00  0.100000D+01
   p     5 1.00
  0.187100D+02  0.140310D-01
  0.413300D+01  0.868660D-01
  0.120000D+01  0.290216D+00
  0.382700D+00  0.501008D+00
  0.120900D+00  0.343406D+00
   p     1 1.00
  0.382700D+00  0.100000D+01
   p     1 1.00
  0.120900D+00  0.100000D+01
   d     1 1.00
  0.109700D+01  0.100000D+01
   d     1 1.00
  0.318000D+00  0.100000D+01
   f     1 1.00
  0.761000D+00  0.100000D+01
  
  7  0
   s    10 1.00
  0.823600D+04  0.531000D-03
  0.123500D+04  0.410800D-02
  0.280800D+03  0.210870D-01
  0.792700D+02  0.818530D-01
  0.255900D+02  0.234817D+00
  0.899700D+01  0.434401D+00
  0.331900D+01  0.346129D+00
  0.905900D+00  0.393780D-01
  0.364300D+00 -0.898300D-02
  0.128500D+00  0.238500D-02
   s    10 1.00
  0.823600D+04 -0.113000D-03
  0.123500D+04 -0.878000D-03
  0.280800D+03 -0.454000D-02
  0.792700D+02 -0.181330D-01
  0.255900D+02 -0.557600D-01
  0.899700D+01 -0.126895D+00
  0.331900D+01 -0.170352D+00
  0.905900D+00  0.140382D+00
  0.364300D+00  0.598684D+00
  0.128500D+00  0.395389D+00
   s     1 1.00
  0.905900D+00  0.100000D+01
   s     1 1.00
  0.364300D+00  0.100000D+01
   p     5 1.00
  0.187100D+02  0.140310D-01
  0.413300D+01  0.868660D-01
  0.120000D+01  0.290216D+00
  0.382700D+00  0.501008D+00
  0.120900D+00  0.343406D+00
   p     1 1.00
  0.382700D+00  0.100000D+01
   p     1 1.00
  0.120900D+00  0.100000D+01
   d     1 1.00
  0.109700D+01  0.100000D+01
   d     1 1.00
  0.318000D+00  0.100000D+01
   f     1 1.00
  0.761000D+00  0.100000D+01
  
  8  0
   s     4 1.00
  0.130100D+02  0.196850D-01
  0.196200D+01  0.137977D+00
  0.444600D+00  0.478148D+00
  0.122000D+00  0.501240D+00
   s     1 1.00
  0.122000D+00  0.100000D+01
   p     1 1.00
  0.727000D+00  0.100000D+01
  
  9  0
   s     4 1.00
  0.130100D+02  0.196850D-01
  0.196200D+01  0.137977D+00
  0.444600D+00  0.478148D+00
  0.122000D+00  0.501240D+00
   s     1 1.00
  0.122000D+00  0.100000D+01
   p     1 1.00
  0.727000D+00  0.100000D+01
  
 10  0
   s     4 1.00
  0.130100D+02  0.196850D-01
  0.196200D+01  0.137977D+00
  0.444600D+00  0.478148D+00
  0.122000D+00  0.501240D+00
   s     1 1.00
  0.122000D+00  0.100000D+01
   p     1 1.00
  0.727000D+00  0.100000D+01
  
 11  0
   s     4 1.00
  0.130100D+02  0.196850D-01
  0.196200D+01  0.137977D+00
  0.444600D+00  0.478148D+00
  0.122000D+00  0.501240D+00
   s     1 1.00
  0.122000D+00  0.100000D+01
   p     1 1.00
  0.727000D+00  0.100000D+01
  
 12  0
   s     4 1.00
  0.130100D+02  0.196850D-01
  0.196200D+01  0.137977D+00
  0.444600D+00  0.478148D+00
  0.122000D+00  0.501240D+00
   s     1 1.00
  0.122000D+00  0.100000D+01
   p     1 1.00
  0.727000D+00  0.100000D+01
  
 13  0
   s     4 1.00
  0.130100D+02  0.196850D-01
  0.196200D+01  0.137977D+00
  0.444600D+00  0.478148D+00
  0.122000D+00  0.501240D+00
   s     1 1.00
  0.122000D+00  0.100000D+01
   p     1 1.00
  0.727000D+00  0.100000D+01
  
 14  0
   s     4 1.00
  0.130100D+02  0.196850D-01
  0.196200D+01  0.137977D+00
  0.444600D+00  0.478148D+00
  0.122000D+00  0.501240D+00
   s     1 1.00
  0.122000D+00  0.100000D+01
   p     1 1.00
  0.727000D+00  0.100000D+01
  
[MO]
 Sym= __1_A__
 Ene=  0.000000000000000E+000
 Spin= Alpha
 Occup=    2.00000000000000     
                     1  1.066701741458989E-004
                     2  0.998348220267216     
                     3 -2.695271704165426E-003
                     4  1.838909078490508E-003
                     5  6.547899079163757E-003
                     6  2.787226266638248E-003
                     7  5.967004911668318E-003
                     8 -2.294808222893103E-010
                     9 -7.064430781685755E-004
                    10 -7.425526682714841E-004
                    11  2.112169972767633E-010
                    12 -2.477363835701024E-003
                    13 -1.950918913772270E-003
                    14 -1.403288036168450E-010
                    15 -3.175792236655208E-005
                    16  5.171966054070433E-011
                    17  1.072922107494112E-011
                    18 -1.548251452016120E-004
                    19 -6.411289266728552E-005
                    20  9.021131837089353E-005
                    21 -5.964694599157204E-011
                    22 -2.918464780255949E-010
                    23 -2.247024837982056E-004
                    24  5.021222607365505E-004
                    25 -2.991875788823370E-010
                    26 -4.882335428790905E-006
                    27 -5.009610126347821E-005
                    28  1.735639908157187E-010
                    29 -2.208817314739472E-010
                    30  3.359340554827490E-005
                    31 -1.108942621392168E-004
                    32 -3.706180668969098E-004
                    33  1.708910440869992E-004
                    34  3.282384107404383E-004
                    35 -1.288680422705764E-004
                    36 -5.470513850226007E-005
                    37 -2.661049406021845E-003
                    38 -6.773368215809804E-011
                    39  3.739390840701400E-004
                    40  2.239374499675352E-004
                    41  2.395573922159460E-010
                    42 -2.174802251768976E-003
                    43  5.054522740459838E-003
                    44 -9.966845999975993E-011
                    45  6.012256519551498E-006
                    46 -7.461754650847415E-012
                    47 -2.627949634106834E-011
                    48 -1.293455368634619E-004
                    49  1.332499859625271E-005
                    50 -1.964584633334592E-004
                    51  4.822437758037951E-011
                    52 -3.738799590659287E-010
                    53  2.280752211486254E-005
                    54  7.844264913199197E-004
                    55  7.815706620576472E-011
                    56 -2.630232122685815E-006
                    57 -7.447127337931779E-005
                    58 -1.797631336830023E-010
                    59 -2.435972486749434E-011
                    60  1.715056894397155E-005
                    61 -1.290440672821309E-004
                    62 -5.525888765899160E-004
                    63 -2.195984632437275E-003
                    64 -8.889812126186131E-005
                    65  2.257623880495534E-003
                    66 -4.852748912432381E-004
                    67  1.307768194612188E-004
                    68 -5.902251073532934E-011
                    69  3.839949448489657E-004
                    70  9.020867734576358E-004
                    71  6.474098154722907E-011
                    72 -1.802504591354389E-003
                    73  6.889620130818164E-004
                    74  5.169538142471671E-011
                    75 -4.490290109672523E-005
                    76 -7.133572870214749E-012
                    77  1.546133523192840E-011
                    78 -6.224468570307997E-005
                    79 -2.356280357766677E-005
                    80 -1.342987084315424E-004
                    81  8.999214114112418E-011
                    82 -4.580468974986896E-011
                    83  3.120349510792048E-005
                    84  1.045987866751724E-005
                    85  5.445479385523896E-011
                    86  9.735726916062456E-006
                    87 -4.664426552936166E-005
                    88 -7.191026984393598E-011
                    89 -2.003698252922267E-011
                    90 -2.941817432694762E-005
                    91 -1.553256153972865E-004
                    92 -1.773872088473528E-004
                    93 -6.550979376032641E-004
                    94  1.622439632735535E-004
                    95 -8.406728568118699E-005
                    96  2.178255175224809E-004
                    97  3.449519063553735E-005
                    98 -5.862740390849089E-011
                    99  3.424440343629766E-004
                   100  3.822218766999670E-004
                   101  6.357123117333773E-011
                   102  6.261210004666119E-004
                   103 -1.771307830891143E-003
                   104 -1.175205956140707E-011
                   105 -1.139032976547460E-005
                   106 -2.208552626949491E-012
                   107  1.247292717859758E-011
                   108 -4.472986932369040E-005
                   109 -1.531555510193765E-005
                   110  8.602613736398633E-005
                   111 -6.413933845713665E-011
                   112 -9.045722530614995E-012
                   113 -1.648420787491719E-004
                   114  8.130331665159233E-005
                   115  6.212423185366803E-011
                   116 -1.943119933254953E-005
                   117 -2.261904521462448E-005
                   118 -7.747665240043030E-011
                   119  5.812132335406448E-012
                   120 -1.251564131856911E-005
                   121 -3.660771607712638E-005
                   122 -2.461029301144566E-004
                   123 -6.052656902746520E-004
                   124  1.724089951564257E-004
                   125  3.071061499200673E-004
                   126 -2.918217170032026E-005
                   127 -3.300569543089219E-004
                   128 -2.757446566871005E-012
                   129  2.307974173725882E-004
                   130  6.610619050695578E-004
                   131 -1.279503049273434E-011
                   132  4.279140718325897E-004
                   133  2.035511751363735E-003
                   134  3.931317800692767E-011
                   135  1.428600661977907E-005
                   136  8.481374376511035E-012
                   137  3.608377455971827E-010
                   138  4.675429423859366E-005
                   139 -7.829887492907307E-007
                   140  2.068098335053456E-004
                   141  1.775326422787335E-011
                   142 -2.083844965855417E-010
                   143  4.016965282194226E-004
                   144  2.374463981626556E-004
                   145 -3.310107037072608E-012
                   146 -1.147896146829212E-005
                   147 -6.499451121543559E-005
                   148  2.551704038858512E-011
                   149  1.157357578075688E-011
                   150 -1.584135595604196E-005
                   151 -5.405199595973949E-005
                   152 -1.337834525734780E-004
                   153 -3.618188321434285E-004
                   154  5.475335279370913E-005
                   155  1.966428071876544E-004
                   156  6.190045292827656E-006
                   157 -9.613743955496658E-005
                   158 -1.146027711156403E-011
                   159  1.130483137414686E-005
                   160  4.917811992701017E-005
                   161 -2.108560353895986E-011
                   162  7.550044660042201E-004
                   163 -3.868078750341038E-004
                   164  8.837526807354870E-011
                   165  1.602644901376720E-006
                   166 -1.086028372507594E-011
                   167  3.773469706467051E-010
                   168  1.951859215524299E-006
                   169  1.003335353781213E-005
                   170  1.041767699666657E-004
                   171 -3.247153828808366E-011
                   172 -2.089137367229549E-010
                   173  4.505516327377376E-005
                   174  3.128912794053474E-005
                   175 -1.809291891942258E-012
                   176  3.509785946132077E-006
                   177 -1.342787181404259E-005
                   178  3.574341936223608E-011
                   179 -1.573317085286923E-011
                   180 -2.331739068043729E-005
                   181 -2.830290532048412E-005
                   182 -1.389498376304312E-004
                   183 -4.064458069166208E-004
                   184  3.242665277935363E-005
                   185  2.052018495134906E-004
                   186 -4.764559016803870E-005
                   187 -6.310309689130689E-005
                   188  3.714101116152355E-011
                   189  2.669426332428457E-004
                   190  1.223800811707455E-004
                   191 -2.698820952152547E-011
                   192  1.375568835084368E-003
                   193 -3.123863215413523E-004
                   194 -1.743871659789331E-011
                   195  1.286283608969683E-006
                   196  2.858983166644741E-012
                   197  3.434580324273100E-011
                   198 -3.866136209525648E-006
                   199  4.348262686542722E-006
                   200 -9.378031299964823E-006
                   201 -2.013018827225604E-011
                   202  7.893183578612207E-011
                   203 -7.075864984723478E-005
                   204 -2.071931352254736E-004
                   205 -4.781777187571619E-011
                   206 -9.934832920594839E-006
                   207 -4.134956322050188E-006
                   208 -3.339132954967082E-011
                   209  5.188884662618338E-012
                   210  8.175091387761964E-006
                   211 -4.508807030833335E-006
                   212 -4.865809625238844E-005
                   213  1.039460804533052E-004
                   214  2.127910234958782E-005
                   215  2.537101784530114E-005
                   216 -5.601478772966091E-012
                   217 -8.584814238394646E-004
                   218 -6.337937207082237E-004
                   219 -2.443916029834721E-004
                   220  5.845075689172763E-005
                   221 -9.330291471252236E-012
                   222 -2.155196807432202E-004
                   223 -6.150597882937130E-004
                   224  2.397182395587937E-005
                   225 -6.012131494055460E-005
                   226  1.359718916628873E-011
                   227  6.158497514089768E-005
                   228 -6.645892189249881E-004
                   229 -4.412764976520117E-005
                   230 -1.354057936487170E-005
                   231  1.856453578525954E-011
                   232  8.348193058225738E-006
                   233 -4.968149347435565E-004
                   234  1.238812465735277E-005
                   235 -4.048034476426554E-006
                   236  1.250656955228305E-011
                   237  5.586503101889055E-007
                   238 -3.637064502131469E-004
                   239 -6.516809692305571E-006
                   240 -2.107590076612947E-006
                   241  1.303391062225047E-011
                   242 -6.174269822200287E-005
                   243  9.211735173182297E-005
                   244 -1.686700301287640E-007
                   245  3.074213949748390E-005
                   246 -3.517895276922537E-011
 Sym= __2_A__
 Ene=  0.000000000000000E+000
 Spin= Alpha
 Occup=    2.00000000000000     
                     1  4.385412070117487E-005
                     2  3.025477158695830E-004
                     3 -3.545164126169040E-003
                     4 -1.048507850252753E-004
                     5 -1.418907399020245E-003
                     6  7.855127588312027E-004
                     7 -3.616266355874890E-003
                     8  1.392681162021015E-010
                     9  1.153419863590465E-005
                    10  1.010262070261703E-004
                    11 -5.516118634749747E-011
                    12  7.598056646020591E-006
                    13  2.757595260952382E-004
                    14  9.412848359432641E-011
                    15 -1.998508130228818E-005
                    16 -2.036584732200532E-012
                    17 -1.249104823955266E-011
                    18  6.962127778074313E-005
                    19 -2.654798746343469E-005
                    20  1.368150085368781E-004
                    21  1.113564779131607E-011
                    22  2.123622122076822E-010
                    23 -5.464079179134866E-005
                    24  1.463078891721420E-004
                    25  1.790774382921208E-010
                    26  1.591909867288097E-005
                    27 -8.367706542344846E-005
                    28 -1.490694231043500E-010
                    29  2.260558149855603E-010
                    30  6.497373245712646E-005
                    31 -1.382622813690564E-004
                    32  -1.00079520600394     
                    33 -9.304364412703145E-003
                    34 -2.824990184252276E-003
                    35  8.145953127431703E-003
                    36  2.711887138625892E-004
                    37  4.178619076758584E-003
                    38 -1.396715219397425E-010
                    39  2.098491205400145E-004
                    40 -3.061193327933975E-004
                    41 -8.408552904951052E-012
                    42  1.232979087142149E-004
                    43 -4.372382062954149E-003
                    44  5.119706324146222E-010
                    45  5.201344211660410E-004
                    46 -3.732819278643762E-011
                    47  2.233422266521501E-011
                    48  2.206965885719314E-004
                    49 -3.606399076584545E-005
                    50 -5.539075713483583E-004
                    51 -7.799476877267634E-011
                    52  4.215050682036742E-010
                    53  6.604795969985004E-004
                    54  4.707381545533164E-004
                    55 -3.738740183178382E-011
                    56 -1.873987394354881E-005
                    57 -1.041271745374506E-004
                    58  1.079379103937468E-010
                    59  2.789788360170759E-011
                    60  2.451416458963209E-005
                    61 -3.797134664799109E-004
                    62 -1.386025168185788E-002
                    63  2.213243445598264E-003
                    64  2.156345032276482E-004
                    65 -2.667394095665616E-003
                    66  1.038898447413047E-004
                    67 -3.022057728556597E-004
                    68  1.195780331367570E-010
                    69 -4.794492238980312E-004
                    70 -1.744387845990443E-004
                    71 -2.654508300693523E-010
                    72  2.129957868293195E-003
                    73 -2.479027998678619E-004
                    74 -5.737443747148072E-010
                    75 -3.698700515570607E-005
                    76  2.619357494785832E-011
                    77  9.691027234621649E-012
                    78  2.422148154008346E-005
                    79 -3.677989052840518E-006
                    80  4.235319117760310E-004
                    81 -2.819862471162399E-010
                    82 -1.805208604433346E-010
                    83  6.899436774970132E-004
                    84  2.482686649745785E-004
                    85 -3.885796490532635E-011
                    86 -3.103022558774981E-005
                    87  5.829082643638138E-005
                    88  3.598697409511506E-011
                    89 -1.753047755170749E-011
                    90 -5.526261682927861E-005
                    91 -1.494583475711495E-004
                    92 -1.758674445106642E-002
                    93  2.293385628066046E-003
                    94  2.940374817418782E-004
                    95 -3.212755341944451E-003
                    96 -4.699690010373401E-004
                    97 -4.767724894797786E-004
                    98  1.034382342575173E-010
                    99  9.811864874114873E-004
                   100  2.491404062398997E-005
                   101 -2.967367251626903E-010
                   102 -1.741397121059517E-003
                   103  4.169941184565032E-005
                   104 -5.180785079139130E-010
                   105 -2.250673250052732E-005
                   106 -1.540619420453334E-011
                   107  1.670132628831464E-011
                   108  2.108255761143562E-005
                   109 -4.189193156494776E-007
                   110  4.151326175049644E-004
                   111  2.489250096021795E-010
                   112 -2.480913564617742E-010
                   113  3.900470193607246E-004
                   114 -2.291475749661332E-004
                   115 -4.109767251082361E-011
                   116  3.279836142783403E-005
                   117  7.495951358331341E-005
                   118  4.228212217394102E-011
                   119  3.890897939512634E-011
                   120  3.767605230765337E-006
                   121 -1.374063083188381E-004
                   122 -1.006741176323249E-004
                   123  5.896539705607366E-004
                   124 -2.297240927919144E-004
                   125  1.226655241212598E-004
                   126 -1.404000700809459E-006
                   127  5.376463374886421E-004
                   128 -2.762304911577372E-010
                   129  8.275037435708943E-005
                   130 -6.348977087701048E-004
                   131  7.001500548790318E-010
                   132 -3.582299041050553E-004
                   133 -9.731149395119979E-004
                   134  9.463575150059714E-010
                   135 -1.784133149997124E-005
                   136 -6.581874746364601E-011
                   137  4.086720698549297E-011
                   138  4.809635672084750E-007
                   139 -4.778253576777933E-005
                   140 -1.272927673945449E-004
                   141  8.462751906872011E-010
                   142 -1.304942507699048E-010
                   143 -2.625319251659724E-004
                   144  9.112455551215608E-005
                   145  1.431372616499984E-010
                   146 -9.813824168465419E-006
                   147  3.593214547611297E-005
                   148  1.010884267297603E-010
                   149  9.914337021501016E-011
                   150  4.527026816062122E-005
                   151 -4.029979921336954E-005
                   152 -4.527109438178909E-004
                   153  5.375275944378696E-004
                   154 -2.282722770191937E-004
                   155  2.786366144093579E-005
                   156  5.744067370200647E-005
                   157  6.108782590056578E-004
                   158 -2.624698030598438E-010
                   159 -1.427863470834314E-004
                   160 -5.528179263697860E-004