[Molden Format]
[Atoms] AU
  N     1    7    -0.1266953200   -4.3372225400    0.0000000000        
  C     2    6     0.0027806400   -1.8069546000    0.0000000000        
  C     3    6    -2.2906629400   -0.4252438100    0.0000000000        
  C     4    6     2.3185652300   -0.4043813000    0.0000000000        
  C     5    6    -2.2782918100    2.1680279100    0.0000000000        
  C     6    6     2.3094582600    2.1764919700    0.0000000000        
  C     7    6     0.0148444900    3.4966288100    0.0000000000        
  H     8    1    -4.3028254600   -7.5862227300    0.0000000000        
  H     9    1     1.6888592600   -5.0703662700    0.0000000000        
  H    10    1    -4.0284023400   -1.4672723900    0.0000000000        
  H    11    1     4.0748450700   -1.4238400000    0.0000000000        
  H    12    1    -4.0271380100    3.1959799800    0.0000000000        
  H    13    1     4.0551613000    3.2103876400    0.0000000000        
  H    14    1     0.0124314300    5.5245646400    0.0000000000        
[5D]
[7F]
[GTO]
  1  0
   s    12 1.00
  0.114200D+05  0.172695D-04
  0.171200D+04  0.134411D-03
  0.389300D+03  0.694561D-03
  0.110000D+03  0.278531D-02
  0.355700D+02  0.863457D-02
  0.125400D+02  0.199805D-01
  0.464400D+01  0.262908D-01
  0.129300D+01 -0.243845D-01
  0.511800D+00 -0.924934D-01
  0.178700D+00 -0.339683D+00
  0.246240D-01  0.345111D+00
  0.112530D-01  0.752750D+00
   s    10 1.00
  0.114200D+05  0.523000D-03
  0.171200D+04  0.404500D-02
  0.389300D+03  0.207750D-01
  0.110000D+03  0.807269D-01
  0.355700D+02  0.233074D+00
  0.125400D+02  0.433501D+00
  0.464400D+01  0.347472D+00
  0.129300D+01  0.412620D-01
  0.511800D+00 -0.850799D-02
  0.178700D+00  0.238400D-02
   s    10 1.00
  0.114200D+05 -0.115000D-03
  0.171200D+04 -0.895000D-03
  0.389300D+03 -0.462400D-02
  0.110000D+03 -0.185280D-01
  0.355700D+02 -0.573390D-01
  0.125400D+02 -0.132076D+00
  0.464400D+01 -0.172510D+00
  0.129300D+01  0.151814D+00
  0.511800D+00  0.599944D+00
  0.178700D+00  0.387462D+00
   s     1 1.00
  0.129300D+01  0.100000D+01
   s     1 1.00
  0.178700D+00  0.100000D+01
   p     5 1.00
  0.266300D+02  0.146700D-01
  0.594800D+01  0.917640D-01
  0.174200D+01  0.298683D+00
  0.555000D+00  0.498487D+00
  0.172500D+00  0.337023D+00
   p     1 1.00
  0.174200D+01  0.100000D+01
   p     1 1.00
  0.555000D+00  0.100000D+01
   d     1 1.00
  0.165400D+01  0.100000D+01
   d     1 1.00
  0.469000D+00  0.100000D+01
   f     1 1.00
  0.109300D+01  0.100000D+01
  
  2  0
   s    10 1.00
  0.823600D+04  0.531000D-03
  0.123500D+04  0.410800D-02
  0.280800D+03  0.210870D-01
  0.792700D+02  0.818530D-01
  0.255900D+02  0.234817D+00
  0.899700D+01  0.434401D+00
  0.331900D+01  0.346129D+00
  0.905900D+00  0.393780D-01
  0.364300D+00 -0.898300D-02
  0.128500D+00  0.238500D-02
   s    10 1.00
  0.823600D+04 -0.113000D-03
  0.123500D+04 -0.878000D-03
  0.280800D+03 -0.454000D-02
  0.792700D+02 -0.181330D-01
  0.255900D+02 -0.557600D-01
  0.899700D+01 -0.126895D+00
  0.331900D+01 -0.170352D+00
  0.905900D+00  0.140382D+00
  0.364300D+00  0.598684D+00
  0.128500D+00  0.395389D+00
   s     1 1.00
  0.905900D+00  0.100000D+01
   s     1 1.00
  0.364300D+00  0.100000D+01
   p     5 1.00
  0.187100D+02  0.140310D-01
  0.413300D+01  0.868660D-01
  0.120000D+01  0.290216D+00
  0.382700D+00  0.501008D+00
  0.120900D+00  0.343406D+00
   p     1 1.00
  0.382700D+00  0.100000D+01
   p     1 1.00
  0.120900D+00  0.100000D+01
   d     1 1.00
  0.109700D+01  0.100000D+01
   d     1 1.00
  0.318000D+00  0.100000D+01
   f     1 1.00
  0.761000D+00  0.100000D+01
  
  3  0
   s    10 1.00
  0.823600D+04  0.531000D-03
  0.123500D+04  0.410800D-02
  0.280800D+03  0.210870D-01
  0.792700D+02  0.818530D-01
  0.255900D+02  0.234817D+00
  0.899700D+01  0.434401D+00
  0.331900D+01  0.346129D+00
  0.905900D+00  0.393780D-01
  0.364300D+00 -0.898300D-02
  0.128500D+00  0.238500D-02
   s    10 1.00
  0.823600D+04 -0.113000D-03
  0.123500D+04 -0.878000D-03
  0.280800D+03 -0.454000D-02
  0.792700D+02 -0.181330D-01
  0.255900D+02 -0.557600D-01
  0.899700D+01 -0.126895D+00
  0.331900D+01 -0.170352D+00
  0.905900D+00  0.140382D+00
  0.364300D+00  0.598684D+00
  0.128500D+00  0.395389D+00
   s     1 1.00
  0.905900D+00  0.100000D+01
   s     1 1.00
  0.364300D+00  0.100000D+01
   p     5 1.00
  0.187100D+02  0.140310D-01
  0.413300D+01  0.868660D-01
  0.120000D+01  0.290216D+00
  0.382700D+00  0.501008D+00
  0.120900D+00  0.343406D+00
   p     1 1.00
  0.382700D+00  0.100000D+01
   p     1 1.00
  0.120900D+00  0.100000D+01
   d     1 1.00
  0.109700D+01  0.100000D+01
   d     1 1.00
  0.318000D+00  0.100000D+01
   f     1 1.00
  0.761000D+00  0.100000D+01
  
  4  0
   s    10 1.00
  0.823600D+04  0.531000D-03
  0.123500D+04  0.410800D-02
  0.280800D+03  0.210870D-01
  0.792700D+02  0.818530D-01
  0.255900D+02  0.234817D+00
  0.899700D+01  0.434401D+00
  0.331900D+01  0.346129D+00
  0.905900D+00  0.393780D-01
  0.364300D+00 -0.898300D-02
  0.128500D+00  0.238500D-02
   s    10 1.00
  0.823600D+04 -0.113000D-03
  0.123500D+04 -0.878000D-03
  0.280800D+03 -0.454000D-02
  0.792700D+02 -0.181330D-01
  0.255900D+02 -0.557600D-01
  0.899700D+01 -0.126895D+00
  0.331900D+01 -0.170352D+00
  0.905900D+00  0.140382D+00
  0.364300D+00  0.598684D+00
  0.128500D+00  0.395389D+00
   s     1 1.00
  0.905900D+00  0.100000D+01
   s     1 1.00
  0.364300D+00  0.100000D+01
   p     5 1.00
  0.187100D+02  0.140310D-01
  0.413300D+01  0.868660D-01
  0.120000D+01  0.290216D+00
  0.382700D+00  0.501008D+00
  0.120900D+00  0.343406D+00
   p     1 1.00
  0.382700D+00  0.100000D+01
   p     1 1.00
  0.120900D+00  0.100000D+01
   d     1 1.00
  0.109700D+01  0.100000D+01
   d     1 1.00
  0.318000D+00  0.100000D+01
   f     1 1.00
  0.761000D+00  0.100000D+01
  
  5  0
   s    10 1.00
  0.823600D+04  0.531000D-03
  0.123500D+04  0.410800D-02
  0.280800D+03  0.210870D-01
  0.792700D+02  0.818530D-01
  0.255900D+02  0.234817D+00
  0.899700D+01  0.434401D+00
  0.331900D+01  0.346129D+00
  0.905900D+00  0.393780D-01
  0.364300D+00 -0.898300D-02
  0.128500D+00  0.238500D-02
   s    10 1.00
  0.823600D+04 -0.113000D-03
  0.123500D+04 -0.878000D-03
  0.280800D+03 -0.454000D-02
  0.792700D+02 -0.181330D-01
  0.255900D+02 -0.557600D-01
  0.899700D+01 -0.126895D+00
  0.331900D+01 -0.170352D+00
  0.905900D+00  0.140382D+00
  0.364300D+00  0.598684D+00
  0.128500D+00  0.395389D+00
   s     1 1.00
  0.905900D+00  0.100000D+01
   s     1 1.00
  0.364300D+00  0.100000D+01
   p     5 1.00
  0.187100D+02  0.140310D-01
  0.413300D+01  0.868660D-01
  0.120000D+01  0.290216D+00
  0.382700D+00  0.501008D+00
  0.120900D+00  0.343406D+00
   p     1 1.00
  0.382700D+00  0.100000D+01
   p     1 1.00
  0.120900D+00  0.100000D+01
   d     1 1.00
  0.109700D+01  0.100000D+01
   d     1 1.00
  0.318000D+00  0.100000D+01
   f     1 1.00
  0.761000D+00  0.100000D+01
  
  6  0
   s    10 1.00
  0.823600D+04  0.531000D-03
  0.123500D+04  0.410800D-02
  0.280800D+03  0.210870D-01
  0.792700D+02  0.818530D-01
  0.255900D+02  0.234817D+00
  0.899700D+01  0.434401D+00
  0.331900D+01  0.346129D+00
  0.905900D+00  0.393780D-01
  0.364300D+00 -0.898300D-02
  0.128500D+00  0.238500D-02
   s    10 1.00
  0.823600D+04 -0.113000D-03
  0.123500D+04 -0.878000D-03
  0.280800D+03 -0.454000D-02
  0.792700D+02 -0.181330D-01
  0.255900D+02 -0.557600D-01
  0.899700D+01 -0.126895D+00
  0.331900D+01 -0.170352D+00
  0.905900D+00  0.140382D+00
  0.364300D+00  0.598684D+00
  0.128500D+00  0.395389D+00
   s     1 1.00
  0.905900D+00  0.100000D+01
   s     1 1.00
  0.364300D+00  0.100000D+01
   p     5 1.00
  0.187100D+02  0.140310D-01
  0.413300D+01  0.868660D-01
  0.120000D+01  0.290216D+00
  0.382700D+00  0.501008D+00
  0.120900D+00  0.343406D+00
   p     1 1.00
  0.382700D+00  0.100000D+01
   p     1 1.00
  0.120900D+00  0.100000D+01
   d     1 1.00
  0.109700D+01  0.100000D+01
   d     1 1.00
  0.318000D+00  0.100000D+01
   f     1 1.00
  0.761000D+00  0.100000D+01
  
  7  0
   s    10 1.00
  0.823600D+04  0.531000D-03
  0.123500D+04  0.410800D-02
  0.280800D+03  0.210870D-01
  0.792700D+02  0.818530D-01
  0.255900D+02  0.234817D+00
  0.899700D+01  0.434401D+00
  0.331900D+01  0.346129D+00
  0.905900D+00  0.393780D-01
  0.364300D+00 -0.898300D-02
  0.128500D+00  0.238500D-02
   s    10 1.00
  0.823600D+04 -0.113000D-03
  0.123500D+04 -0.878000D-03
  0.280800D+03 -0.454000D-02
  0.792700D+02 -0.181330D-01
  0.255900D+02 -0.557600D-01
  0.899700D+01 -0.126895D+00
  0.331900D+01 -0.170352D+00
  0.905900D+00  0.140382D+00
  0.364300D+00  0.598684D+00
  0.128500D+00  0.395389D+00
   s     1 1.00
  0.905900D+00  0.100000D+01
   s     1 1.00
  0.364300D+00  0.100000D+01
   p     5 1.00
  0.187100D+02  0.140310D-01
  0.413300D+01  0.868660D-01
  0.120000D+01  0.290216D+00
  0.382700D+00  0.501008D+00
  0.120900D+00  0.343406D+00
   p     1 1.00
  0.382700D+00  0.100000D+01
   p     1 1.00
  0.120900D+00  0.100000D+01
   d     1 1.00
  0.109700D+01  0.100000D+01
   d     1 1.00
  0.318000D+00  0.100000D+01
   f     1 1.00
  0.761000D+00  0.100000D+01
  
  8  0
   s     4 1.00
  0.130100D+02  0.196850D-01
  0.196200D+01  0.137977D+00
  0.444600D+00  0.478148D+00
  0.122000D+00  0.501240D+00
   s     1 1.00
  0.122000D+00  0.100000D+01
   p     1 1.00
  0.727000D+00  0.100000D+01
  
  9  0
   s     4 1.00
  0.130100D+02  0.196850D-01
  0.196200D+01  0.137977D+00
  0.444600D+00  0.478148D+00
  0.122000D+00  0.501240D+00
   s     1 1.00
  0.122000D+00  0.100000D+01
   p     1 1.00
  0.727000D+00  0.100000D+01
  
 10  0
   s     4 1.00
  0.130100D+02  0.196850D-01
  0.196200D+01  0.137977D+00
  0.444600D+00  0.478148D+00
  0.122000D+00  0.501240D+00
   s     1 1.00
  0.122000D+00  0.100000D+01
   p     1 1.00
  0.727000D+00  0.100000D+01
  
 11  0
   s     4 1.00
  0.130100D+02  0.196850D-01
  0.196200D+01  0.137977D+00
  0.444600D+00  0.478148D+00
  0.122000D+00  0.501240D+00
   s     1 1.00
  0.122000D+00  0.100000D+01
   p     1 1.00
  0.727000D+00  0.100000D+01
  
 12  0
   s     4 1.00
  0.130100D+02  0.196850D-01
  0.196200D+01  0.137977D+00
  0.444600D+00  0.478148D+00
  0.122000D+00  0.501240D+00
   s     1 1.00
  0.122000D+00  0.100000D+01
   p     1 1.00
  0.727000D+00  0.100000D+01
  
 13  0
   s     4 1.00
  0.130100D+02  0.196850D-01
  0.196200D+01  0.137977D+00
  0.444600D+00  0.478148D+00
  0.122000D+00  0.501240D+00
   s     1 1.00
  0.122000D+00  0.100000D+01
   p     1 1.00
  0.727000D+00  0.100000D+01
  
 14  0
   s     4 1.00
  0.130100D+02  0.196850D-01
  0.196200D+01  0.137977D+00
  0.444600D+00  0.478148D+00
  0.122000D+00  0.501240D+00
   s     1 1.00
  0.122000D+00  0.100000D+01
   p     1 1.00
  0.727000D+00  0.100000D+01
  
[MO]
 Sym= __1_A__
 Ene=  0.000000000000000E+000
 Spin= Alpha
 Occup=    2.00000000000000     
                     1  8.048762022961627E-005
                     2  0.998377564652196     
                     3 -1.243455750876055E-002
                     4  1.947953197908561E-003
                     5  7.697346924051330E-003
                     6  9.390485078682269E-004
                     7  6.941243949816931E-003
                     8  0.000000000000000E+000
                     9 -8.604285580978366E-004
                    10 -7.535907445338096E-004
                    11  0.000000000000000E+000
                    12 -2.394858613662342E-003
                    13 -2.284794373053311E-003
                    14  0.000000000000000E+000
                    15  3.588937041039583E-005
                    16  0.000000000000000E+000
                    17  0.000000000000000E+000
                    18 -1.852595371615965E-004
                    19  2.153475503104292E-005
                    20  9.129395709244369E-005
                    21  0.000000000000000E+000
                    22  0.000000000000000E+000
                    23 -9.626623884122549E-005
                    24  4.248251113546052E-004
                    25  0.000000000000000E+000
                    26  1.709463630504641E-005
                    27 -4.152479295763523E-005
                    28  0.000000000000000E+000
                    29  0.000000000000000E+000
                    30  4.512849462950349E-005
                    31 -4.468096526110709E-005
                    32 -2.298829817179042E-004
                    33  7.062626846981751E-004
                    34  2.865880582644605E-004
                    35  4.456860422989912E-005
                    36  2.354258218463062E-003
                    37  2.350505764185158E-004
                    38  0.000000000000000E+000
                    39  6.744765417473156E-005
                    40 -2.267100028164547E-004
                    41  0.000000000000000E+000
                    42 -1.885828272444321E-003
                    43  4.581840125049719E-003
                    44  0.000000000000000E+000
                    45  2.218468959126920E-005
                    46  0.000000000000000E+000
                    47  0.000000000000000E+000
                    48  2.911229903903310E-005
                    49  1.189994116445323E-004
                    50 -1.656651362179937E-004
                    51  0.000000000000000E+000
                    52  0.000000000000000E+000
                    53  2.096613797252920E-005
                    54  6.753809987974698E-004
                    55  0.000000000000000E+000
                    56 -1.774629753867189E-005
                    57 -9.859134420344449E-005
                    58  0.000000000000000E+000
                    59  0.000000000000000E+000
                    60 -3.397235206390274E-006
                    61 -1.168747655952326E-004
                    62 -5.542039721219921E-004
                    63 -2.284461650320235E-003
                    64 -5.885071696051108E-005
                    65  2.098765902598877E-003
                    66 -1.016574572034505E-003
                    67 -9.819607595637204E-005
                    68  0.000000000000000E+000
                    69  3.369323535929187E-004
                    70  8.551086047429248E-004
                    71  0.000000000000000E+000
                    72 -1.679662316721276E-003
                    73  2.483096792806016E-004
                    74  0.000000000000000E+000
                    75 -3.944541314124603E-005
                    76  0.000000000000000E+000
                    77  0.000000000000000E+000
                    78 -1.788537062196836E-005
                    79  1.762489319978835E-005
                    80 -1.164307590497523E-004
                    81  0.000000000000000E+000
                    82  0.000000000000000E+000
                    83 -5.335996273344088E-005
                    84 -9.517647304242215E-005
                    85  0.000000000000000E+000
                    86  1.504895831059896E-005
                    87 -4.462280487853056E-005
                    88  0.000000000000000E+000
                    89  0.000000000000000E+000
                    90 -2.984243191436736E-005
                    91 -1.452728717989397E-004
                    92 -2.007927362250354E-004
                    93  9.403408639277821E-004
                    94  7.644568074515410E-005
                    95  1.224642097470559E-004
                    96 -1.722022231046239E-003
                    97 -2.631784819287892E-003
                    98  0.000000000000000E+000
                    99  2.974316345577011E-004
                   100  5.172059682782333E-004
                   101  0.000000000000000E+000
                   102  1.149740610771860E-003
                   103 -8.791481504382138E-004
                   104  0.000000000000000E+000
                   105 -4.713783490774393E-005
                   106  0.000000000000000E+000
                   107  0.000000000000000E+000
                   108  3.586552677472576E-005
                   109  6.206790501737171E-005
                   110  2.147201544923548E-005
                   111  0.000000000000000E+000
                   112  0.000000000000000E+000
                   113 -7.924767871750803E-005
                   114  2.891018871884299E-004
                   115  0.000000000000000E+000
                   116  3.270340643168600E-006
                   117 -6.217499113491531E-006
                   118  0.000000000000000E+000
                   119  0.000000000000000E+000
                   120 -6.636648558786828E-007
                   121 -8.247132415246986E-005
                   122 -2.450254499812195E-004
                   123 -7.510193305623301E-004
                   124  1.686523438625293E-004
                   125  2.850922515661457E-004
                   126  8.662202289979916E-005
                   127  7.756275214533870E-005
                   128  0.000000000000000E+000
                   129  2.587424636487618E-004
                   130  6.101717457015182E-004
                   131  0.000000000000000E+000
                   132  2.875980136983587E-004
                   133  1.533453925575456E-003
                   134  0.000000000000000E+000
                   135  1.545644365068210E-005
                   136  0.000000000000000E+000
                   137  0.000000000000000E+000
                   138  5.324926009886326E-005
                   139  1.043113655787614E-005
                   140  1.963914657480542E-004
                   141  0.000000000000000E+000
                   142  0.000000000000000E+000
                   143  3.933349225250338E-004
                   144  1.544929368613769E-004
                   145  0.000000000000000E+000
                   146 -1.493820922297837E-005
                   147 -5.953352422611961E-005
                   148  0.000000000000000E+000
                   149  0.000000000000000E+000
                   150 -3.673269554489314E-006
                   151 -5.672730241455390E-005
                   152 -1.364166736208944E-004
                   153 -1.185931460230713E-003
                   154  7.410454260217426E-005
                   155  2.542543454164558E-004
                   156  3.259748923825423E-004
                   157  1.428088924989348E-003
                   158  0.000000000000000E+000
                   159 -1.189687506693674E-004
                   160 -1.056399568147076E-005
                   161  0.000000000000000E+000
                   162  5.983824575421765E-004
                   163 -1.044512939175787E-004
                   164  0.000000000000000E+000
                   165  1.375718484071856E-005
                   166  0.000000000000000E+000
                   167  0.000000000000000E+000
                   168  5.110770056256464E-005
                   169  4.800448269615483E-005
                   170  1.482206846658229E-004
                   171  0.000000000000000E+000
                   172  0.000000000000000E+000
                   173  1.101945780517460E-004
                   174  6.081074171877980E-005
                   175  0.000000000000000E+000
                   176  5.934266565009738E-006
                   177 -3.024724263983332E-005
                   178  0.000000000000000E+000
                   179  0.000000000000000E+000
                   180 -3.332963766731669E-005
                   181 -5.387281487894103E-005
                   182 -1.306245365056189E-004
                   183 -3.565267900807108E-004
                   184  3.012617013050097E-005
                   185  2.194326382808465E-004
                   186 -1.753756261428848E-004
                   187 -1.749742639519250E-004
                   188  0.000000000000000E+000
                   189  2.208908672399277E-004
                   190  1.453113877902696E-004
                   191  0.000000000000000E+000
                   192  8.455065587594339E-004
                   193 -3.976294192396242E-004
                   194  0.000000000000000E+000
                   195 -8.854664047878804E-008
                   196  0.000000000000000E+000
                   197  0.000000000000000E+000
                   198  1.920427021141037E-005
                   199  1.308603615033893E-005
                   200 -4.095154808417928E-006
                   201  0.000000000000000E+000
                   202  0.000000000000000E+000
                   203 -5.803827386478414E-005
                   204 -1.357148886558244E-004
                   205  0.000000000000000E+000
                   206 -8.501827196206833E-006
                   207 -4.457018834768580E-006
                   208  0.000000000000000E+000
                   209  0.000000000000000E+000
                   210  3.035594019926716E-006
                   211 -1.882175425996210E-006
                   212 -1.859557309573129E-005
                   213  1.053094089107885E-004
                   214  1.623222214139766E-005
                   215  2.253284100610799E-005
                   216  0.000000000000000E+000
                   217 -6.758565545274269E-003
                   218  1.983880079270000E-003
                   219  2.149344542014274E-004
                   220 -1.143329377933439E-004
                   221  0.000000000000000E+000
                   222  5.955466694078496E-004
                   223 -8.485552293641275E-004
                   224  4.030710596661294E-005
                   225 -2.546478178136647E-005
                   226  0.000000000000000E+000
                   227  3.207263014757526E-004
                   228 -9.503478592824149E-004
                   229 -8.759548824345434E-005
                   230 -3.879965053626693E-005
                   231  0.000000000000000E+000
                   232 -4.251196055746364E-005
                   233 -4.576974642300950E-004
                   234  1.563264595200975E-005
                   235 -5.245567889250570E-006
                   236  0.000000000000000E+000
                   237  8.870295317669195E-004
                   238 -5.634735166880688E-004
                   239 -5.210048690806004E-005
                   240 -9.738934472684131E-006
                   241  0.000000000000000E+000
                   242 -3.028124423933863E-004
                   243  1.160616446879325E-004
                   244  1.401061505863425E-006
                   245  3.823268913092792E-005
                   246  0.000000000000000E+000
 Sym= __2_A__
 Ene=  0.000000000000000E+000
 Spin= Alpha
 Occup=    2.00000000000000     
                     1  4.241877275007286E-005
                     2  3.436893975540945E-004
                     3 -3.235219367669799E-003
                     4 -9.344229027420405E-005
                     5 -1.540890156654839E-003
                     6  9.646333382875136E-004
                     7 -3.942337571420852E-003
                     8  0.000000000000000E+000
                     9  3.143936369939497E-005
                    10  1.141479181980027E-004
                    11  0.000000000000000E+000
                    12  2.709704389791439E-006
                    13  2.495791262907663E-004
                    14  0.000000000000000E+000
                    15 -1.562034694755756E-005
                    16  0.000000000000000E+000
                    17  0.000000000000000E+000
                    18  8.398494223766190E-005
                    19 -3.252584095260898E-005
                    20  1.502363424465521E-004
                    21  0.000000000000000E+000
                    22  0.000000000000000E+000
                    23 -4.995511864591680E-005
                    24  1.421551373880862E-004
                    25  0.000000000000000E+000
                    26  1.460568348743985E-005
                    27 -8.590744653779242E-005
                    28  0.000000000000000E+000
                    29  0.000000000000000E+000
                    30  7.135476031805985E-005
                    31 -1.538888810603988E-004
                    32  -1.00083646474448     
                    33 -9.575875473149307E-003
                    34 -2.957331593879520E-003
                    35  8.174536806856245E-003
                    36  2.134945107571349E-004
                    37  4.863596179857046E-003
                    38  0.000000000000000E+000
                    39  3.834528237453494E-004
                    40 -9.919516676074186E-004
                    41  0.000000000000000E+000
                    42  4.700820244809750E-005
                    43 -4.750042965365979E-003
                    44  0.000000000000000E+000
                    45  5.482359541244275E-004
                    46  0.000000000000000E+000
                    47  0.000000000000000E+000
                    48  2.212037327671014E-004
                    49 -2.981686887123842E-005
                    50 -5.538129994562658E-004
                    51  0.000000000000000E+000
                    52  0.000000000000000E+000
                    53  6.578510533234086E-004
                    54  5.016827405751100E-004
                    55  0.000000000000000E+000
                    56 -2.874415716826813E-005
                    57 -8.901037135713018E-005
                    58  0.000000000000000E+000
                    59  0.000000000000000E+000
                    60  4.421759983900881E-005
                    61 -4.047782215694204E-004
                    62 -1.126989722820504E-002
                    63  2.265052241397651E-003
                    64  2.054267720709476E-004
                    65 -2.674685710927564E-003
                    66  5.986934081502435E-005
                    67 -1.181846180048037E-004
                    68  0.000000000000000E+000
                    69 -3.383006762510089E-004
                    70 -2.620793513449200E-004
                    71  0.000000000000000E+000
                    72  2.204985987437528E-003
                    73 -3.398705742235804E-004
                    74  0.000000000000000E+000
                    75 -4.886871767120973E-005
                    76  0.000000000000000E+000
                    77  0.000000000000000E+000
                    78  2.514061423636806E-005
                    79 -2.154079102258882E-005
                    80  4.284922765255883E-004
                    81  0.000000000000000E+000
                    82  0.000000000000000E+000
                    83  8.037931532118068E-004
                    84  2.266808635575049E-004
                    85  0.000000000000000E+000
                    86 -3.375299100296042E-005
                    87  5.649975035229105E-005
                    88  0.000000000000000E+000
                    89  0.000000000000000E+000
                    90 -5.072021704985467E-005
                    91 -1.467690828932972E-004
                    92 -1.317590299654495E-002
                    93  2.280373187905824E-003
                    94  3.083103640359220E-004
                    95 -3.278283357944883E-003
                    96 -4.306275042206211E-004
                    97 -2.467024852392171E-004
                    98  0.000000000000000E+000
                    99  9.578772729695194E-004
                   100 -1.175881734114877E-005
                   101  0.000000000000000E+000
                   102 -1.835519555209818E-003
                   103  3.169800210878545E-006
                   104  0.000000000000000E+000
                   105 -2.556670325208598E-005
                   106  0.000000000000000E+000
                   107  0.000000000000000E+000
                   108  1.307697655565578E-005
                   109  4.720329551492930E-006
                   110  4.194669016836717E-004
                   111  0.000000000000000E+000
                   112  0.000000000000000E+000
                   113  4.242888129602438E-004
                   114 -3.039640044465445E-004
                   115  0.000000000000000E+000
                   116  3.374624341151604E-005
                   117  6.864029008187041E-005
                   118  0.000000000000000E+000
                   119  0.000000000000000E+000
                   120  2.270002083686834E-005
                   121 -1.351967953619443E-004
                   122  2.044801849781915E-004
                   123  6.913370904775981E-004
                   124 -2.411508896754375E-004
                   125  1.799845941689813E-004
                   126  1.410727043040432E-005
                   127  4.196265499607778E-004
                   128  0.000000000000000E+000
                   129  3.402483519492290E-005
                   130 -6.850839031305136E-004
                   131  0.000000000000000E+000
                   132 -3.815239439665407E-004
                   133 -9.525767532068824E-004
                   134  0.000000000000000E+000
                   135 -2.291510867145299E-005
                   136  0.000000000000000E+000
                   137  0.000000000000000E+000
                   138 -7.614549502981264E-006
                   139 -4.839734769134245E-005
                   140 -1.245029994887339E-004
                   141  0.000000000000000E+000
                   142  0.000000000000000E+000
                   143 -3.009495063459252E-004
                   144  1.236870643359117E-004
                   145  0.000000000000000E+000
                   146 -6.983119590239291E-006
                   147  3.372540417961579E-005
                   148  0.000000000000000E+000
                   149  0.000000000000000E+000
                   150  4.081153152901253E-005
                   151 -3.146881022247452E-005
                   152 -2.213601036379564E-005
                   153  6.491573955892751E-004
                   154 -2.345400318024622E-004
                   155  5.421630032519011E-005
                   156  6.455186258969757E-005
                   157  4.509151493255694E-004
                   158  0.000000000000000E+000
                   159 -1.335671464219327E-004
                   160 -5.389733178236648E-004