[Molden Format]
[Atoms] AU
  N     1    7     0.0228629600   -4.2630017900    0.0000000200        
  C     2    6     0.1261310400   -1.7225440700   -0.0000000100        
  C     3    6    -2.2156233700   -0.3667511900    0.0000000100        
  C     4    6     2.4120152100   -0.2639184400   -0.0000000300        
  C     5    6    -2.2378860700    2.2144333300   -0.0000000100        
  C     6    6     2.3407992200    2.3127472500    0.0000000000        
  C     7    6     0.0277794900    3.5831222100    0.0000000000        
  H     8    1    -4.1776521700   -7.4805818000    0.0000000300        
  H     9    1     1.8344876500   -4.9857947800    0.0000000000        
  H    10    1    -3.9360405800   -1.4345647000    0.0000000000        
  H    11    1     4.1890296500   -1.2452383300   -0.0000000300        
  H    12    1    -4.0043231700    3.2133125500   -0.0000000400        
  H    13    1     4.0661694300    3.3813175200    0.0000000300        
  H    14    1    -0.0149815000    5.6107866500    0.0000000100        
[5D]
[7F]
[GTO]
  1  0
   s    12 1.00
  0.114200D+05  0.172695D-04
  0.171200D+04  0.134411D-03
  0.389300D+03  0.694561D-03
  0.110000D+03  0.278531D-02
  0.355700D+02  0.863457D-02
  0.125400D+02  0.199805D-01
  0.464400D+01  0.262908D-01
  0.129300D+01 -0.243845D-01
  0.511800D+00 -0.924934D-01
  0.178700D+00 -0.339683D+00
  0.246240D-01  0.345111D+00
  0.112530D-01  0.752750D+00
   s    10 1.00
  0.114200D+05  0.523000D-03
  0.171200D+04  0.404500D-02
  0.389300D+03  0.207750D-01
  0.110000D+03  0.807269D-01
  0.355700D+02  0.233074D+00
  0.125400D+02  0.433501D+00
  0.464400D+01  0.347472D+00
  0.129300D+01  0.412620D-01
  0.511800D+00 -0.850799D-02
  0.178700D+00  0.238400D-02
   s    10 1.00
  0.114200D+05 -0.115000D-03
  0.171200D+04 -0.895000D-03
  0.389300D+03 -0.462400D-02
  0.110000D+03 -0.185280D-01
  0.355700D+02 -0.573390D-01
  0.125400D+02 -0.132076D+00
  0.464400D+01 -0.172510D+00
  0.129300D+01  0.151814D+00
  0.511800D+00  0.599944D+00
  0.178700D+00  0.387462D+00
   s     1 1.00
  0.129300D+01  0.100000D+01
   s     1 1.00
  0.178700D+00  0.100000D+01
   p     5 1.00
  0.266300D+02  0.146700D-01
  0.594800D+01  0.917640D-01
  0.174200D+01  0.298683D+00
  0.555000D+00  0.498487D+00
  0.172500D+00  0.337023D+00
   p     1 1.00
  0.174200D+01  0.100000D+01
   p     1 1.00
  0.555000D+00  0.100000D+01
   d     1 1.00
  0.165400D+01  0.100000D+01
   d     1 1.00
  0.469000D+00  0.100000D+01
   f     1 1.00
  0.109300D+01  0.100000D+01
  
  2  0
   s    10 1.00
  0.823600D+04  0.531000D-03
  0.123500D+04  0.410800D-02
  0.280800D+03  0.210870D-01
  0.792700D+02  0.818530D-01
  0.255900D+02  0.234817D+00
  0.899700D+01  0.434401D+00
  0.331900D+01  0.346129D+00
  0.905900D+00  0.393780D-01
  0.364300D+00 -0.898300D-02
  0.128500D+00  0.238500D-02
   s    10 1.00
  0.823600D+04 -0.113000D-03
  0.123500D+04 -0.878000D-03
  0.280800D+03 -0.454000D-02
  0.792700D+02 -0.181330D-01
  0.255900D+02 -0.557600D-01
  0.899700D+01 -0.126895D+00
  0.331900D+01 -0.170352D+00
  0.905900D+00  0.140382D+00
  0.364300D+00  0.598684D+00
  0.128500D+00  0.395389D+00
   s     1 1.00
  0.905900D+00  0.100000D+01
   s     1 1.00
  0.364300D+00  0.100000D+01
   p     5 1.00
  0.187100D+02  0.140310D-01
  0.413300D+01  0.868660D-01
  0.120000D+01  0.290216D+00
  0.382700D+00  0.501008D+00
  0.120900D+00  0.343406D+00
   p     1 1.00
  0.382700D+00  0.100000D+01
   p     1 1.00
  0.120900D+00  0.100000D+01
   d     1 1.00
  0.109700D+01  0.100000D+01
   d     1 1.00
  0.318000D+00  0.100000D+01
   f     1 1.00
  0.761000D+00  0.100000D+01
  
  3  0
   s    10 1.00
  0.823600D+04  0.531000D-03
  0.123500D+04  0.410800D-02
  0.280800D+03  0.210870D-01
  0.792700D+02  0.818530D-01
  0.255900D+02  0.234817D+00
  0.899700D+01  0.434401D+00
  0.331900D+01  0.346129D+00
  0.905900D+00  0.393780D-01
  0.364300D+00 -0.898300D-02
  0.128500D+00  0.238500D-02
   s    10 1.00
  0.823600D+04 -0.113000D-03
  0.123500D+04 -0.878000D-03
  0.280800D+03 -0.454000D-02
  0.792700D+02 -0.181330D-01
  0.255900D+02 -0.557600D-01
  0.899700D+01 -0.126895D+00
  0.331900D+01 -0.170352D+00
  0.905900D+00  0.140382D+00
  0.364300D+00  0.598684D+00
  0.128500D+00  0.395389D+00
   s     1 1.00
  0.905900D+00  0.100000D+01
   s     1 1.00
  0.364300D+00  0.100000D+01
   p     5 1.00
  0.187100D+02  0.140310D-01
  0.413300D+01  0.868660D-01
  0.120000D+01  0.290216D+00
  0.382700D+00  0.501008D+00
  0.120900D+00  0.343406D+00
   p     1 1.00
  0.382700D+00  0.100000D+01
   p     1 1.00
  0.120900D+00  0.100000D+01
   d     1 1.00
  0.109700D+01  0.100000D+01
   d     1 1.00
  0.318000D+00  0.100000D+01
   f     1 1.00
  0.761000D+00  0.100000D+01
  
  4  0
   s    10 1.00
  0.823600D+04  0.531000D-03
  0.123500D+04  0.410800D-02
  0.280800D+03  0.210870D-01
  0.792700D+02  0.818530D-01
  0.255900D+02  0.234817D+00
  0.899700D+01  0.434401D+00
  0.331900D+01  0.346129D+00
  0.905900D+00  0.393780D-01
  0.364300D+00 -0.898300D-02
  0.128500D+00  0.238500D-02
   s    10 1.00
  0.823600D+04 -0.113000D-03
  0.123500D+04 -0.878000D-03
  0.280800D+03 -0.454000D-02
  0.792700D+02 -0.181330D-01
  0.255900D+02 -0.557600D-01
  0.899700D+01 -0.126895D+00
  0.331900D+01 -0.170352D+00
  0.905900D+00  0.140382D+00
  0.364300D+00  0.598684D+00
  0.128500D+00  0.395389D+00
   s     1 1.00
  0.905900D+00  0.100000D+01
   s     1 1.00
  0.364300D+00  0.100000D+01
   p     5 1.00
  0.187100D+02  0.140310D-01
  0.413300D+01  0.868660D-01
  0.120000D+01  0.290216D+00
  0.382700D+00  0.501008D+00
  0.120900D+00  0.343406D+00
   p     1 1.00
  0.382700D+00  0.100000D+01
   p     1 1.00
  0.120900D+00  0.100000D+01
   d     1 1.00
  0.109700D+01  0.100000D+01
   d     1 1.00
  0.318000D+00  0.100000D+01
   f     1 1.00
  0.761000D+00  0.100000D+01
  
  5  0
   s    10 1.00
  0.823600D+04  0.531000D-03
  0.123500D+04  0.410800D-02
  0.280800D+03  0.210870D-01
  0.792700D+02  0.818530D-01
  0.255900D+02  0.234817D+00
  0.899700D+01  0.434401D+00
  0.331900D+01  0.346129D+00
  0.905900D+00  0.393780D-01
  0.364300D+00 -0.898300D-02
  0.128500D+00  0.238500D-02
   s    10 1.00
  0.823600D+04 -0.113000D-03
  0.123500D+04 -0.878000D-03
  0.280800D+03 -0.454000D-02
  0.792700D+02 -0.181330D-01
  0.255900D+02 -0.557600D-01
  0.899700D+01 -0.126895D+00
  0.331900D+01 -0.170352D+00
  0.905900D+00  0.140382D+00
  0.364300D+00  0.598684D+00
  0.128500D+00  0.395389D+00
   s     1 1.00
  0.905900D+00  0.100000D+01
   s     1 1.00
  0.364300D+00  0.100000D+01
   p     5 1.00
  0.187100D+02  0.140310D-01
  0.413300D+01  0.868660D-01
  0.120000D+01  0.290216D+00
  0.382700D+00  0.501008D+00
  0.120900D+00  0.343406D+00
   p     1 1.00
  0.382700D+00  0.100000D+01
   p     1 1.00
  0.120900D+00  0.100000D+01
   d     1 1.00
  0.109700D+01  0.100000D+01
   d     1 1.00
  0.318000D+00  0.100000D+01
   f     1 1.00
  0.761000D+00  0.100000D+01
  
  6  0
   s    10 1.00
  0.823600D+04  0.531000D-03
  0.123500D+04  0.410800D-02
  0.280800D+03  0.210870D-01
  0.792700D+02  0.818530D-01
  0.255900D+02  0.234817D+00
  0.899700D+01  0.434401D+00
  0.331900D+01  0.346129D+00
  0.905900D+00  0.393780D-01
  0.364300D+00 -0.898300D-02
  0.128500D+00  0.238500D-02
   s    10 1.00
  0.823600D+04 -0.113000D-03
  0.123500D+04 -0.878000D-03
  0.280800D+03 -0.454000D-02
  0.792700D+02 -0.181330D-01
  0.255900D+02 -0.557600D-01
  0.899700D+01 -0.126895D+00
  0.331900D+01 -0.170352D+00
  0.905900D+00  0.140382D+00
  0.364300D+00  0.598684D+00
  0.128500D+00  0.395389D+00
   s     1 1.00
  0.905900D+00  0.100000D+01
   s     1 1.00
  0.364300D+00  0.100000D+01
   p     5 1.00
  0.187100D+02  0.140310D-01
  0.413300D+01  0.868660D-01
  0.120000D+01  0.290216D+00
  0.382700D+00  0.501008D+00
  0.120900D+00  0.343406D+00
   p     1 1.00
  0.382700D+00  0.100000D+01
   p     1 1.00
  0.120900D+00  0.100000D+01
   d     1 1.00
  0.109700D+01  0.100000D+01
   d     1 1.00
  0.318000D+00  0.100000D+01
   f     1 1.00
  0.761000D+00  0.100000D+01
  
  7  0
   s    10 1.00
  0.823600D+04  0.531000D-03
  0.123500D+04  0.410800D-02
  0.280800D+03  0.210870D-01
  0.792700D+02  0.818530D-01
  0.255900D+02  0.234817D+00
  0.899700D+01  0.434401D+00
  0.331900D+01  0.346129D+00
  0.905900D+00  0.393780D-01
  0.364300D+00 -0.898300D-02
  0.128500D+00  0.238500D-02
   s    10 1.00
  0.823600D+04 -0.113000D-03
  0.123500D+04 -0.878000D-03
  0.280800D+03 -0.454000D-02
  0.792700D+02 -0.181330D-01
  0.255900D+02 -0.557600D-01
  0.899700D+01 -0.126895D+00
  0.331900D+01 -0.170352D+00
  0.905900D+00  0.140382D+00
  0.364300D+00  0.598684D+00
  0.128500D+00  0.395389D+00
   s     1 1.00
  0.905900D+00  0.100000D+01
   s     1 1.00
  0.364300D+00  0.100000D+01
   p     5 1.00
  0.187100D+02  0.140310D-01
  0.413300D+01  0.868660D-01
  0.120000D+01  0.290216D+00
  0.382700D+00  0.501008D+00
  0.120900D+00  0.343406D+00
   p     1 1.00
  0.382700D+00  0.100000D+01
   p     1 1.00
  0.120900D+00  0.100000D+01
   d     1 1.00
  0.109700D+01  0.100000D+01
   d     1 1.00
  0.318000D+00  0.100000D+01
   f     1 1.00
  0.761000D+00  0.100000D+01
  
  8  0
   s     4 1.00
  0.130100D+02  0.196850D-01
  0.196200D+01  0.137977D+00
  0.444600D+00  0.478148D+00
  0.122000D+00  0.501240D+00
   s     1 1.00
  0.122000D+00  0.100000D+01
   p     1 1.00
  0.727000D+00  0.100000D+01
  
  9  0
   s     4 1.00
  0.130100D+02  0.196850D-01
  0.196200D+01  0.137977D+00
  0.444600D+00  0.478148D+00
  0.122000D+00  0.501240D+00
   s     1 1.00
  0.122000D+00  0.100000D+01
   p     1 1.00
  0.727000D+00  0.100000D+01
  
 10  0
   s     4 1.00
  0.130100D+02  0.196850D-01
  0.196200D+01  0.137977D+00
  0.444600D+00  0.478148D+00
  0.122000D+00  0.501240D+00
   s     1 1.00
  0.122000D+00  0.100000D+01
   p     1 1.00
  0.727000D+00  0.100000D+01
  
 11  0
   s     4 1.00
  0.130100D+02  0.196850D-01
  0.196200D+01  0.137977D+00
  0.444600D+00  0.478148D+00
  0.122000D+00  0.501240D+00
   s     1 1.00
  0.122000D+00  0.100000D+01
   p     1 1.00
  0.727000D+00  0.100000D+01
  
 12  0
   s     4 1.00
  0.130100D+02  0.196850D-01
  0.196200D+01  0.137977D+00
  0.444600D+00  0.478148D+00
  0.122000D+00  0.501240D+00
   s     1 1.00
  0.122000D+00  0.100000D+01
   p     1 1.00
  0.727000D+00  0.100000D+01
  
 13  0
   s     4 1.00
  0.130100D+02  0.196850D-01
  0.196200D+01  0.137977D+00
  0.444600D+00  0.478148D+00
  0.122000D+00  0.501240D+00
   s     1 1.00
  0.122000D+00  0.100000D+01
   p     1 1.00
  0.727000D+00  0.100000D+01
  
 14  0
   s     4 1.00
  0.130100D+02  0.196850D-01
  0.196200D+01  0.137977D+00
  0.444600D+00  0.478148D+00
  0.122000D+00  0.501240D+00
   s     1 1.00
  0.122000D+00  0.100000D+01
   p     1 1.00
  0.727000D+00  0.100000D+01
  
[MO]
 Sym= __1_A__
 Ene=   1.00000000000000     
 Spin= Alpha
 Occup=    1.00000000000000     
                     1  1.066701741582698E-004
                     2  0.998348220267180     
                     3 -2.695271703522854E-003
                     4  1.838909078479058E-003
                     5  6.547899079101001E-003
                     6  2.787226266972355E-003
                     7  5.967004911815933E-003
                     8 -2.294808223442946E-010
                     9 -7.064430781486569E-004
                    10 -7.425526682691416E-004
                    11  2.112169973113425E-010
                    12 -2.477363835706398E-003
                    13 -1.950918913737074E-003
                    14 -1.403288036373919E-010
                    15 -3.175792237680020E-005
                    16  5.171966054438102E-011
                    17  1.072922107891837E-011
                    18 -1.548251452038160E-004
                    19 -6.411289266535036E-005
                    20  9.021131834650387E-005
                    21 -5.964694602082422E-011
                    22 -2.918464780839398E-010
                    23 -2.247024838376654E-004
                    24  5.021222607814870E-004
                    25 -2.991875790173871E-010
                    26 -4.882335433300738E-006
                    27 -5.009610127114567E-005
                    28  1.735639908008288E-010
                    29 -2.208817316158760E-010
                    30  3.359340555374534E-005
                    31 -1.108942621470673E-004
                    32 -3.706180689312849E-004
                    33  1.708910459427127E-004
                    34  3.282384107210523E-004
                    35 -1.288680424055434E-004
                    36 -5.470513759467868E-005
                    37 -2.661049405815263E-003
                    38 -6.773368218585241E-011
                    39  3.739390840795243E-004
                    40  2.239374500509782E-004
                    41  2.395573922701157E-010
                    42 -2.174802251983588E-003
                    43  5.054522740665921E-003
                    44 -9.966846002204101E-011
                    45  6.012256493448958E-006
                    46 -7.461754658872248E-012
                    47 -2.627949635088512E-011
                    48 -1.293455368302694E-004
                    49  1.332499861359617E-005
                    50 -1.964584633961672E-004
                    51  4.822437763962117E-011
                    52 -3.738799591439430E-010
                    53  2.280752218528156E-005
                    54  7.844264913802098E-004
                    55  7.815706623056984E-011
                    56 -2.630232131956672E-006
                    57 -7.447127338471852E-005
                    58 -1.797631337235519E-010
                    59 -2.435972489656903E-011
                    60  1.715056894602481E-005
                    61 -1.290440672526884E-004
                    62 -5.525888765012575E-004
                    63 -2.195984632012406E-003
                    64 -8.889812125554757E-005
                    65  2.257623880475916E-003
                    66 -4.852748916325661E-004
                    67  1.307768186319615E-004
                    68 -5.902251074073954E-011
                    69  3.839949449269747E-004
                    70  9.020867736047638E-004
                    71  6.474098155201684E-011
                    72 -1.802504591527321E-003
                    73  6.889620133379715E-004
                    74  5.169538145058633E-011
                    75 -4.490290110431155E-005
                    76 -7.133572874984298E-012
                    77  1.546133523466011E-011
                    78 -6.224468567573216E-005
                    79 -2.356280356600010E-005
                    80 -1.342987084288232E-004
                    81  8.999214117363190E-011
                    82 -4.580468978369719E-011
                    83  3.120349511409356E-005
                    84  1.045987863276512E-005
                    85  5.445479385263870E-011
                    86  9.735726916041870E-006
                    87 -4.664426552620302E-005
                    88 -7.191026984627555E-011
                    89 -2.003698254027824E-011
                    90 -2.941817432972219E-005
                    91 -1.553256154015377E-004
                    92 -1.773872090621658E-004
                    93 -6.550979377530477E-004
                    94  1.622439632834046E-004
                    95 -8.406728569666338E-005
                    96  2.178255168255535E-004
                    97  3.449518843703407E-005
                    98 -5.862740392409797E-011
                    99  3.424440344400784E-004
                   100  3.822218769256662E-004
                   101  6.357123117010366E-011
                   102  6.261210006924373E-004
                   103 -1.771307830391440E-003
                   104 -1.175205953546170E-011
                   105 -1.139032976251595E-005
                   106 -2.208552628054709E-012
                   107  1.247292717340823E-011
                   108 -4.472986926449334E-005
                   109 -1.531555506441592E-005
                   110  8.602613736593198E-005
                   111 -6.413933846233499E-011
                   112 -9.045722509453986E-012
                   113 -1.648420787347192E-004
                   114  8.130331668264607E-005
                   115  6.212423185492626E-011
                   116 -1.943119932703348E-005
                   117 -2.261904519661463E-005
                   118 -7.747665239905709E-011
                   119  5.812132341748931E-012
                   120 -1.251564132225807E-005
                   121 -3.660771607148753E-005
                   122 -2.461029301532124E-004
                   123 -6.052656903292031E-004
                   124  1.724089951671892E-004
                   125  3.071061499131932E-004
                   126 -2.918217177068542E-005
                   127 -3.300569536850025E-004
                   128 -2.757446573392070E-012
                   129  2.307974174169277E-004
                   130  6.610619050660894E-004
                   131 -1.279503049684024E-011
                   132  4.279140719624785E-004
                   133  2.035511751517046E-003
                   134  3.931317801251832E-011
                   135  1.428600662232648E-005
                   136  8.481374376248492E-012
                   137  3.608377456002484E-010
                   138  4.675429425413986E-005
                   139 -7.829887440057264E-007
                   140  2.068098335121896E-004
                   141  1.775326422111718E-011
                   142 -2.083844966161476E-010
                   143  4.016965282593720E-004
                   144  2.374463981943065E-004
                   145 -3.310107036572046E-012
                   146 -1.147896146820811E-005
                   147 -6.499451122186350E-005
                   148  2.551704038608894E-011
                   149  1.157357577816250E-011
                   150 -1.584135595704055E-005
                   151 -5.405199596327754E-005
                   152 -1.337834525310175E-004
                   153 -3.618188332268472E-004
                   154  5.475335281758019E-005
                   155  1.966428072406701E-004
                   156  6.190045615696905E-006
                   157 -9.613743784698526E-005
                   158 -1.146027708241455E-011
                   159  1.130483135762351E-005
                   160  4.917811981486052E-005
                   161 -2.108560354049565E-011
                   162  7.550044660481923E-004
                   163 -3.868078753294792E-004
                   164  8.837526806620788E-011
                   165  1.602644921703058E-006
                   166 -1.086028372372125E-011
                   167  3.773469706444732E-010
                   168  1.951859267710958E-006
                   169  1.003335356213248E-005
                   170  1.041767700005710E-004
                   171 -3.247153830467456E-011
                   172 -2.089137367044749E-010
                   173  4.505516331587510E-005
                   174  3.128912794393780E-005
                   175 -1.809291889637105E-012
                   176  3.509785943620523E-006
                   177 -1.342787182760444E-005
                   178  3.574341936477360E-011
                   179 -1.573317085459558E-011
                   180 -2.331739068639701E-005
                   181 -2.830290534095532E-005
                   182 -1.389498376189942E-004
                   183 -4.064458068660853E-004
                   184  3.242665278005311E-005
                   185  2.052018495040516E-004
                   186 -4.764559029853815E-005
                   187 -6.310309695266684E-005
                   188  3.714101116350774E-011
                   189  2.669426332800925E-004
                   190  1.223800811957510E-004
                   191 -2.698820952678724E-011
                   192  1.375568835284768E-003
                   193 -3.123863217026513E-004
                   194 -1.743871660092959E-011
                   195  1.286283610240900E-006
                   196  2.858983168565827E-012
                   197  3.434580324194334E-011
                   198 -3.866136181679154E-006
                   199  4.348262697902913E-006
                   200 -9.378031314489822E-006
                   201 -2.013018829837996E-011
                   202  7.893183579181388E-011
                   203 -7.075864983784960E-005
                   204 -2.071931352312709E-004
                   205 -4.781777187606042E-011
                   206 -9.934832921489203E-006
                   207 -4.134956322558242E-006
                   208 -3.339132954962024E-011
                   209  5.188884667083194E-012
                   210  8.175091384862866E-006
                   211 -4.508807034814369E-006
                   212 -4.865809625018488E-005
                   213  1.039460804752942E-004
                   214  2.127910235106423E-005
                   215  2.537101784699587E-005
                   216 -5.601478772838681E-012
                   217 -8.584814233432790E-004
                   218 -6.337937209283575E-004
                   219 -2.443916030208884E-004
                   220  5.845075691677538E-005
                   221 -9.330291454838831E-012
                   222 -2.155196797341492E-004
                   223 -6.150597886847879E-004
                   224  2.397182401320706E-005
                   225 -6.012131491401256E-005
                   226  1.359718917194886E-011
                   227  6.158497544869187E-005
                   228 -6.645892190657718E-004
                   229 -4.412764979750674E-005
                   230 -1.354057938268527E-005
                   231  1.856453579056141E-011
                   232  8.348193366033387E-006
                   233 -4.968149348816889E-004
                   234  1.238812467715738E-005
                   235 -4.048034480002200E-006
                   236  1.250656955473948E-011
                   237  5.586510908661020E-007
                   238 -3.637064503972584E-004
                   239 -6.516809728293518E-006
                   240 -2.107590075692305E-006
                   241  1.303391062244451E-011
                   242 -6.174269844621753E-005
                   243  9.211735177094726E-005
                   244 -1.686700302336630E-007
                   245  3.074213950653761E-005
                   246 -3.517895277070175E-011
 Sym= __2_A__
 Ene=   2.00000000000000     
 Spin= Alpha
 Occup=    1.00000000000000     
                     1  4.385412070687087E-005
                     2  3.025477138581828E-004
                     3 -3.545164125826127E-003
                     4 -1.048507850366015E-004
                     5 -1.418907399119011E-003
                     6  7.855127589760910E-004
                     7 -3.616266355808550E-003
                     8  1.392681163652223E-010
                     9  1.153419864918346E-005
                    10  1.010262070384900E-004
                    11 -5.516118644602401E-011
                    12  7.598056633198294E-006
                    13  2.757595261137990E-004
                    14  9.412848366125985E-011
                    15 -1.998508130740050E-005
                    16 -2.036584733239496E-012
                    17 -1.249104825637766E-011
                    18  6.962127777996372E-005
                    19 -2.654798746099954E-005
                    20  1.368150085251304E-004
                    21  1.113564780969205E-011
                    22  2.123622124064514E-010
                    23 -5.464079181350738E-005
                    24  1.463078891809152E-004
                    25  1.790774385006515E-010
                    26  1.591909867183926E-005
                    27 -8.367706542836428E-005
                    28 -1.490694232487699E-010
                    29  2.260558151487379E-010
                    30  6.497373245662812E-005
                    31 -1.382622813724967E-004
                    32  -1.00079520600367     
                    33 -9.304364411558920E-003
                    34 -2.824990184242487E-003
                    35  8.145953127268651E-003
                    36  2.711887146084456E-004
                    37  4.178619076974222E-003
                    38 -1.396715218622845E-010
                    39  2.098491205341147E-004
                    40 -3.061193327779079E-004
                    41 -8.408553120350803E-012
                    42  1.232979082727747E-004
                    43 -4.372382062895164E-003
                    44  5.119706324369971E-010
                    45  5.201344211475964E-004
                    46 -3.732819277821253E-011
                    47  2.233422269977650E-011
                    48  2.206965885878172E-004
                    49 -3.606399073435877E-005
                    50 -5.539075713728731E-004
                    51 -7.799476882411920E-011
                    52  4.215050683976279E-010
                    53  6.604795969585506E-004
                    54  4.707381545662257E-004
                    55 -3.738740192087170E-011
                    56 -1.873987394646253E-005
                    57 -1.041271745408042E-004
                    58  1.079379105076812E-010
                    59  2.789788361031067E-011
                    60  2.451416459960054E-005
                    61 -3.797134664601699E-004
                    62 -1.386025171656576E-002
                    63  2.213243444996649E-003
                    64  2.156345031258719E-004
                    65 -2.667394095268894E-003
                    66  1.038898443935295E-004
                    67 -3.022057736736156E-004
                    68  1.195780331369834E-010
                    69 -4.794492238491074E-004
                    70 -1.744387844732946E-004
                    71 -2.654508300967678E-010
                    72  2.129957868059328E-003
                    73 -2.479027995752839E-004
                    74 -5.737443747698785E-010
                    75 -3.698700513760021E-005
                    76  2.619357495154131E-011
                    77  9.691027236954915E-012
                    78  2.422148157560380E-005
                    79 -3.677989035380003E-006
                    80  4.235319117606217E-004
                    81 -2.819862471541908E-010
                    82 -1.805208604488761E-010
                    83  6.899436774717566E-004
                    84  2.482686649123292E-004
                    85 -3.885796490266449E-011
                    86 -3.103022559033970E-005
                    87  5.829082644056851E-005
                    88  3.598697410431416E-011
                    89 -1.753047755014211E-011
                    90 -5.526261682915722E-005
                    91 -1.494583475582382E-004
                    92 -1.758674444013450E-002
                    93  2.293385629638356E-003
                    94  2.940374817545245E-004
                    95 -3.212755342106060E-003
                    96 -4.699690016735442E-004
                    97 -4.767724896183379E-004
                    98  1.034382342703321E-010
                    99  9.811864874107923E-004
                   100  2.491404064787625E-005
                   101 -2.967367251825279E-010
                   102 -1.741397120901721E-003
                   103  4.169941178818381E-005
                   104 -5.180785079670322E-010
                   105 -2.250673253132276E-005
                   106 -1.540619420792151E-011
                   107  1.670132629487147E-011
                   108  2.108255760802932E-005
                   109 -4.189192932608666E-007
                   110  4.151326174723786E-004
                   111  2.489250096121766E-010
                   112 -2.480913565311442E-010
                   113  3.900470193090236E-004
                   114 -2.291475749083342E-004
                   115 -4.109767250842040E-011
                   116  3.279836143424867E-005
                   117  7.495951358353787E-005
                   118  4.228212218736654E-011
                   119  3.890897939628574E-011
                   120  3.767605224503468E-006
                   121 -1.374063083453993E-004
                   122 -1.006741133464113E-004
                   123  5.896539699183781E-004
                   124 -2.297240927478299E-004
                   125  1.226655240352078E-004
                   126 -1.404000541545921E-006
                   127  5.376463381571227E-004
                   128 -2.762304911680490E-010
                   129  8.275037433082101E-005
                   130 -6.348977087685274E-004
                   131  7.001500549108955E-010
                   132 -3.582299040687377E-004
                   133 -9.731149395728294E-004
                   134  9.463575150460161E-010
                   135 -1.784133149226895E-005
                   136 -6.581874746542765E-011
                   137  4.086720698513940E-011
                   138  4.809635874239590E-007
                   139 -4.778253575572440E-005
                   140 -1.272927673635455E-004
                   141  8.462751907188515E-010
                   142 -1.304942507707610E-010
                   143 -2.625319251080600E-004
                   144  9.112455545932241E-005
                   145  1.431372616548441E-010
                   146 -9.813824166602356E-006
                   147  3.593214547274407E-005
                   148  1.010884267307289E-010
                   149  9.914337021988551E-011
                   150  4.527026815759488E-005
                   151 -4.029979921911705E-005
                   152 -4.527109478039075E-004
                   153  5.375275947881300E-004
                   154 -2.282722770242113E-004
                   155  2.786366142113428E-005
                   156  5.744067371618704E-005
                   157  6.108782585659872E-004
                   158 -2.624698030808207E-010
                   159 -1.427863471281216E-004
                   160 -5.528179263080689E-004