[Molden Format]
[Atoms] AU
  N     1    7     0.0001008500   -0.0014584500   -4.3021150200        
  C     2    6     0.0004637500   -0.0015568300   -1.7726460600        
  C     3    6     0.0431491900   -2.3376197000   -0.4117228300        
  C     4    6    -0.0418311600    2.3344001600   -0.4115289200        
  C     5    6     0.0692658200   -2.2997146200    2.1658855400        
  C     6    6    -0.0672081400    2.2962945600    2.1660838900        
  C     7    6     0.0012165200   -0.0017609000    3.4740375200        
  H     8    1    -0.6613166800   -1.5219926900   -5.3183483500        
  H     9    1     0.6612267700    1.5191548500   -5.3184198000        
  H    10    1     0.1072299200   -4.0704970300   -1.4477828400        
  H    11    1    -0.1062091900    4.0673580900   -1.4474356800        
  H    12    1     0.1462970000   -4.0399035200    3.1988398000        
  H    13    1    -0.1439429000    4.0364031100    3.1991955800        
  H    14    1     0.0015073400   -0.0018397500    5.5009635000        
[5D]
[7F]
[GTO]
  1  0
   s    12 1.00
  0.114200D+05  0.172695D-04
  0.171200D+04  0.134411D-03
  0.389300D+03  0.694561D-03
  0.110000D+03  0.278531D-02
  0.355700D+02  0.863457D-02
  0.125400D+02  0.199805D-01
  0.464400D+01  0.262908D-01
  0.129300D+01 -0.243845D-01
  0.511800D+00 -0.924934D-01
  0.178700D+00 -0.339683D+00
  0.246240D-01  0.345111D+00
  0.112530D-01  0.752750D+00
   s    10 1.00
  0.114200D+05  0.523000D-03
  0.171200D+04  0.404500D-02
  0.389300D+03  0.207750D-01
  0.110000D+03  0.807269D-01
  0.355700D+02  0.233074D+00
  0.125400D+02  0.433501D+00
  0.464400D+01  0.347472D+00
  0.129300D+01  0.412620D-01
  0.511800D+00 -0.850799D-02
  0.178700D+00  0.238400D-02
   s    10 1.00
  0.114200D+05 -0.115000D-03
  0.171200D+04 -0.895000D-03
  0.389300D+03 -0.462400D-02
  0.110000D+03 -0.185280D-01
  0.355700D+02 -0.573390D-01
  0.125400D+02 -0.132076D+00
  0.464400D+01 -0.172510D+00
  0.129300D+01  0.151814D+00
  0.511800D+00  0.599944D+00
  0.178700D+00  0.387462D+00
   s     1 1.00
  0.129300D+01  0.100000D+01
   s     1 1.00
  0.178700D+00  0.100000D+01
   p     5 1.00
  0.266300D+02  0.146700D-01
  0.594800D+01  0.917640D-01
  0.174200D+01  0.298683D+00
  0.555000D+00  0.498487D+00
  0.172500D+00  0.337023D+00
   p     1 1.00
  0.174200D+01  0.100000D+01
   p     1 1.00
  0.555000D+00  0.100000D+01
   d     1 1.00
  0.165400D+01  0.100000D+01
   d     1 1.00
  0.469000D+00  0.100000D+01
   f     1 1.00
  0.109300D+01  0.100000D+01
  
  2  0
   s    10 1.00
  0.823600D+04  0.531000D-03
  0.123500D+04  0.410800D-02
  0.280800D+03  0.210870D-01
  0.792700D+02  0.818530D-01
  0.255900D+02  0.234817D+00
  0.899700D+01  0.434401D+00
  0.331900D+01  0.346129D+00
  0.905900D+00  0.393780D-01
  0.364300D+00 -0.898300D-02
  0.128500D+00  0.238500D-02
   s    10 1.00
  0.823600D+04 -0.113000D-03
  0.123500D+04 -0.878000D-03
  0.280800D+03 -0.454000D-02
  0.792700D+02 -0.181330D-01
  0.255900D+02 -0.557600D-01
  0.899700D+01 -0.126895D+00
  0.331900D+01 -0.170352D+00
  0.905900D+00  0.140382D+00
  0.364300D+00  0.598684D+00
  0.128500D+00  0.395389D+00
   s     1 1.00
  0.905900D+00  0.100000D+01
   s     1 1.00
  0.364300D+00  0.100000D+01
   p     5 1.00
  0.187100D+02  0.140310D-01
  0.413300D+01  0.868660D-01
  0.120000D+01  0.290216D+00
  0.382700D+00  0.501008D+00
  0.120900D+00  0.343406D+00
   p     1 1.00
  0.382700D+00  0.100000D+01
   p     1 1.00
  0.120900D+00  0.100000D+01
   d     1 1.00
  0.109700D+01  0.100000D+01
   d     1 1.00
  0.318000D+00  0.100000D+01
   f     1 1.00
  0.761000D+00  0.100000D+01
  
  3  0
   s    10 1.00
  0.823600D+04  0.531000D-03
  0.123500D+04  0.410800D-02
  0.280800D+03  0.210870D-01
  0.792700D+02  0.818530D-01
  0.255900D+02  0.234817D+00
  0.899700D+01  0.434401D+00
  0.331900D+01  0.346129D+00
  0.905900D+00  0.393780D-01
  0.364300D+00 -0.898300D-02
  0.128500D+00  0.238500D-02
   s    10 1.00
  0.823600D+04 -0.113000D-03
  0.123500D+04 -0.878000D-03
  0.280800D+03 -0.454000D-02
  0.792700D+02 -0.181330D-01
  0.255900D+02 -0.557600D-01
  0.899700D+01 -0.126895D+00
  0.331900D+01 -0.170352D+00
  0.905900D+00  0.140382D+00
  0.364300D+00  0.598684D+00
  0.128500D+00  0.395389D+00
   s     1 1.00
  0.905900D+00  0.100000D+01
   s     1 1.00
  0.364300D+00  0.100000D+01
   p     5 1.00
  0.187100D+02  0.140310D-01
  0.413300D+01  0.868660D-01
  0.120000D+01  0.290216D+00
  0.382700D+00  0.501008D+00
  0.120900D+00  0.343406D+00
   p     1 1.00
  0.382700D+00  0.100000D+01
   p     1 1.00
  0.120900D+00  0.100000D+01
   d     1 1.00
  0.109700D+01  0.100000D+01
   d     1 1.00
  0.318000D+00  0.100000D+01
   f     1 1.00
  0.761000D+00  0.100000D+01
  
  4  0
   s    10 1.00
  0.823600D+04  0.531000D-03
  0.123500D+04  0.410800D-02
  0.280800D+03  0.210870D-01
  0.792700D+02  0.818530D-01
  0.255900D+02  0.234817D+00
  0.899700D+01  0.434401D+00
  0.331900D+01  0.346129D+00
  0.905900D+00  0.393780D-01
  0.364300D+00 -0.898300D-02
  0.128500D+00  0.238500D-02
   s    10 1.00
  0.823600D+04 -0.113000D-03
  0.123500D+04 -0.878000D-03
  0.280800D+03 -0.454000D-02
  0.792700D+02 -0.181330D-01
  0.255900D+02 -0.557600D-01
  0.899700D+01 -0.126895D+00
  0.331900D+01 -0.170352D+00
  0.905900D+00  0.140382D+00
  0.364300D+00  0.598684D+00
  0.128500D+00  0.395389D+00
   s     1 1.00
  0.905900D+00  0.100000D+01
   s     1 1.00
  0.364300D+00  0.100000D+01
   p     5 1.00
  0.187100D+02  0.140310D-01
  0.413300D+01  0.868660D-01
  0.120000D+01  0.290216D+00
  0.382700D+00  0.501008D+00
  0.120900D+00  0.343406D+00
   p     1 1.00
  0.382700D+00  0.100000D+01
   p     1 1.00
  0.120900D+00  0.100000D+01
   d     1 1.00
  0.109700D+01  0.100000D+01
   d     1 1.00
  0.318000D+00  0.100000D+01
   f     1 1.00
  0.761000D+00  0.100000D+01
  
  5  0
   s    10 1.00
  0.823600D+04  0.531000D-03
  0.123500D+04  0.410800D-02
  0.280800D+03  0.210870D-01
  0.792700D+02  0.818530D-01
  0.255900D+02  0.234817D+00
  0.899700D+01  0.434401D+00
  0.331900D+01  0.346129D+00
  0.905900D+00  0.393780D-01
  0.364300D+00 -0.898300D-02
  0.128500D+00  0.238500D-02
   s    10 1.00
  0.823600D+04 -0.113000D-03
  0.123500D+04 -0.878000D-03
  0.280800D+03 -0.454000D-02
  0.792700D+02 -0.181330D-01
  0.255900D+02 -0.557600D-01
  0.899700D+01 -0.126895D+00
  0.331900D+01 -0.170352D+00
  0.905900D+00  0.140382D+00
  0.364300D+00  0.598684D+00
  0.128500D+00  0.395389D+00
   s     1 1.00
  0.905900D+00  0.100000D+01
   s     1 1.00
  0.364300D+00  0.100000D+01
   p     5 1.00
  0.187100D+02  0.140310D-01
  0.413300D+01  0.868660D-01
  0.120000D+01  0.290216D+00
  0.382700D+00  0.501008D+00
  0.120900D+00  0.343406D+00
   p     1 1.00
  0.382700D+00  0.100000D+01
   p     1 1.00
  0.120900D+00  0.100000D+01
   d     1 1.00
  0.109700D+01  0.100000D+01
   d     1 1.00
  0.318000D+00  0.100000D+01
   f     1 1.00
  0.761000D+00  0.100000D+01
  
  6  0
   s    10 1.00
  0.823600D+04  0.531000D-03
  0.123500D+04  0.410800D-02
  0.280800D+03  0.210870D-01
  0.792700D+02  0.818530D-01
  0.255900D+02  0.234817D+00
  0.899700D+01  0.434401D+00
  0.331900D+01  0.346129D+00
  0.905900D+00  0.393780D-01
  0.364300D+00 -0.898300D-02
  0.128500D+00  0.238500D-02
   s    10 1.00
  0.823600D+04 -0.113000D-03
  0.123500D+04 -0.878000D-03
  0.280800D+03 -0.454000D-02
  0.792700D+02 -0.181330D-01
  0.255900D+02 -0.557600D-01
  0.899700D+01 -0.126895D+00
  0.331900D+01 -0.170352D+00
  0.905900D+00  0.140382D+00
  0.364300D+00  0.598684D+00
  0.128500D+00  0.395389D+00
   s     1 1.00
  0.905900D+00  0.100000D+01
   s     1 1.00
  0.364300D+00  0.100000D+01
   p     5 1.00
  0.187100D+02  0.140310D-01
  0.413300D+01  0.868660D-01
  0.120000D+01  0.290216D+00
  0.382700D+00  0.501008D+00
  0.120900D+00  0.343406D+00
   p     1 1.00
  0.382700D+00  0.100000D+01
   p     1 1.00
  0.120900D+00  0.100000D+01
   d     1 1.00
  0.109700D+01  0.100000D+01
   d     1 1.00
  0.318000D+00  0.100000D+01
   f     1 1.00
  0.761000D+00  0.100000D+01
  
  7  0
   s    10 1.00
  0.823600D+04  0.531000D-03
  0.123500D+04  0.410800D-02
  0.280800D+03  0.210870D-01
  0.792700D+02  0.818530D-01
  0.255900D+02  0.234817D+00
  0.899700D+01  0.434401D+00
  0.331900D+01  0.346129D+00
  0.905900D+00  0.393780D-01
  0.364300D+00 -0.898300D-02
  0.128500D+00  0.238500D-02
   s    10 1.00
  0.823600D+04 -0.113000D-03
  0.123500D+04 -0.878000D-03
  0.280800D+03 -0.454000D-02
  0.792700D+02 -0.181330D-01
  0.255900D+02 -0.557600D-01
  0.899700D+01 -0.126895D+00
  0.331900D+01 -0.170352D+00
  0.905900D+00  0.140382D+00
  0.364300D+00  0.598684D+00
  0.128500D+00  0.395389D+00
   s     1 1.00
  0.905900D+00  0.100000D+01
   s     1 1.00
  0.364300D+00  0.100000D+01
   p     5 1.00
  0.187100D+02  0.140310D-01
  0.413300D+01  0.868660D-01
  0.120000D+01  0.290216D+00
  0.382700D+00  0.501008D+00
  0.120900D+00  0.343406D+00
   p     1 1.00
  0.382700D+00  0.100000D+01
   p     1 1.00
  0.120900D+00  0.100000D+01
   d     1 1.00
  0.109700D+01  0.100000D+01
   d     1 1.00
  0.318000D+00  0.100000D+01
   f     1 1.00
  0.761000D+00  0.100000D+01
  
  8  0
   s     4 1.00
  0.130100D+02  0.196850D-01
  0.196200D+01  0.137977D+00
  0.444600D+00  0.478148D+00
  0.122000D+00  0.501240D+00
   s     1 1.00
  0.122000D+00  0.100000D+01
   p     1 1.00
  0.727000D+00  0.100000D+01
  
  9  0
   s     4 1.00
  0.130100D+02  0.196850D-01
  0.196200D+01  0.137977D+00
  0.444600D+00  0.478148D+00
  0.122000D+00  0.501240D+00
   s     1 1.00
  0.122000D+00  0.100000D+01
   p     1 1.00
  0.727000D+00  0.100000D+01
  
 10  0
   s     4 1.00
  0.130100D+02  0.196850D-01
  0.196200D+01  0.137977D+00
  0.444600D+00  0.478148D+00
  0.122000D+00  0.501240D+00
   s     1 1.00
  0.122000D+00  0.100000D+01
   p     1 1.00
  0.727000D+00  0.100000D+01
  
 11  0
   s     4 1.00
  0.130100D+02  0.196850D-01
  0.196200D+01  0.137977D+00
  0.444600D+00  0.478148D+00
  0.122000D+00  0.501240D+00
   s     1 1.00
  0.122000D+00  0.100000D+01
   p     1 1.00
  0.727000D+00  0.100000D+01
  
 12  0
   s     4 1.00
  0.130100D+02  0.196850D-01
  0.196200D+01  0.137977D+00
  0.444600D+00  0.478148D+00
  0.122000D+00  0.501240D+00
   s     1 1.00
  0.122000D+00  0.100000D+01
   p     1 1.00
  0.727000D+00  0.100000D+01
  
 13  0
   s     4 1.00
  0.130100D+02  0.196850D-01
  0.196200D+01  0.137977D+00
  0.444600D+00  0.478148D+00
  0.122000D+00  0.501240D+00
   s     1 1.00
  0.122000D+00  0.100000D+01
   p     1 1.00
  0.727000D+00  0.100000D+01
  
 14  0
   s     4 1.00
  0.130100D+02  0.196850D-01
  0.196200D+01  0.137977D+00
  0.444600D+00  0.478148D+00
  0.122000D+00  0.501240D+00
   s     1 1.00
  0.122000D+00  0.100000D+01
   p     1 1.00
  0.727000D+00  0.100000D+01
  
[MO]
 Sym= __1_a__
 Ene=  0.000000000000000E+000
 Spin= Alpha
 Occup=    2.00000000000000     
                     1  4.357879736514270E-005
                     2  0.998041093835589     
                     3  9.115636126502940E-003
                     4  2.074789785013180E-003
                     5  1.607509341623320E-003
                     6  6.403183617863090E-007
                     7 -1.823752682195370E-007
                     8  4.431449507888570E-003
                     9 -2.329473013187990E-008
                    10  1.595028140187380E-008
                    11 -1.444055097866560E-004
                    12 -3.092552008194340E-008
                    13 -2.373926127068150E-008
                    14 -1.975550582925610E-004
                    15  2.498539301858564E-004
                    16  7.720149960778630E-008
                    17 -2.227217916577280E-008
                    18 -8.423454502240079E-005
                    19  6.398691815215970E-005
                    20  1.421917020982415E-004
                    21 -4.027353268796800E-008
                    22  1.464412002811800E-009
                    23  4.053408936979780E-004
                    24 -3.627879244978950E-004
                    25 -1.864232708973225E-004
                    26  4.651802079188932E-008
                    27 -1.265776859212935E-008
                    28  7.316741589503761E-005
                    29 -3.981546455754190E-005
                    30 -1.050973789012571E-008
                    31 -1.173328172519391E-008
                    32 -3.265565224843540E-004
                    33  2.732112981927760E-003
                    34  1.459094843903860E-004
                    35 -3.208959757535370E-004
                    36 -9.996872755490341E-007
                    37  2.879942675553160E-007
                    38 -6.935191128863010E-003
                    39  4.540937370011580E-008
                    40 -6.145537930793270E-008
                    41  2.794349566643020E-004
                    42  6.193547569325720E-007
                    43 -1.283542847287770E-007
                    44  4.351599547751180E-003
                    45  3.465291430573303E-004
                    46  6.740602200707330E-008
                    47 -1.705807856711300E-008
                    48  1.281518278607816E-004
                    49 -1.114227351789310E-005
                    50  1.690521798163612E-004
                    51  9.435363957947730E-008
                    52 -1.532680115774540E-007
                    53 -3.414829562744580E-004
                    54  9.130652144599170E-005
                    55 -1.048558657206834E-004
                    56  2.042329084975598E-008
                    57 -1.266691390700491E-008
                    58  6.997516995395180E-005
                    59 -1.773681561852390E-005
                    60 -1.152471338035197E-008
                    61 -1.017943164155920E-008
                    62 -2.085670556385720E-004
                    63 -1.662328826259110E-003
                    64  4.386652403274540E-005
                    65  6.215975962483690E-004
                    66 -2.038780689212730E-005
                    67 -8.388924698711500E-004
                    68  1.011431813881800E-003
                    69  4.519752599050530E-005
                    70 -4.793406258328600E-006
                    71  5.337674417325340E-004
                    72  2.667525414636130E-005
                    73 -6.184782372399120E-004
                    74 -1.671083897326240E-004
                    75  9.021367406419751E-005
                    76  2.388568560610220E-006
                    77 -9.892702545173441E-006
                    78  3.814764057914440E-005
                    79 -3.538865672886190E-007
                    80  2.568146561902787E-006
                    81 -3.037332438757710E-005
                    82  1.633840782189920E-004
                    83 -1.781117650498192E-005
                    84  2.666944863961930E-005
                    85 -9.038528426055400E-005
                    86  3.491664442023948E-006
                    87 -2.393005148597378E-005
                    88  2.109391095850620E-005
                    89 -6.260980275577400E-006
                    90  1.647565381180316E-006
                    91  1.512826026065044E-005
                    92 -2.085307065050090E-004
                    93 -1.662182739837400E-003
                    94  4.403234049010820E-005
                    95  6.210516298301970E-004
                    96  2.067620529359370E-005
                    97  8.388330362744230E-004
                    98  1.011599832710140E-003
                    99 -4.503775238634920E-005
                   100  4.611535847009860E-006
                   101  5.331495556379020E-004
                   102 -2.670236458354990E-005
                   103  6.179149231491810E-004
                   104 -1.668935703291240E-004
                   105  9.018344910760591E-005
                   106 -2.354386477227170E-006
                   107  9.894662408472790E-006
                   108  3.814974128804620E-005
                   109 -3.509463322860900E-007
                   110  2.088955517509070E-006
                   111  3.038769821224990E-005
                   112 -1.634981032943260E-004
                   113 -1.790459186510848E-005
                   114  2.661788116230070E-005
                   115 -9.032468985092742E-005
                   116 -3.437844559701749E-006
                   117  2.391500327949254E-005
                   118  2.108889384027680E-005
                   119 -6.245042928123740E-006
                   120 -1.654715071231004E-006
                   121 -1.513167277392304E-005
                   122 -1.506073882189400E-004
                   123 -9.571998117309620E-006
                   124  1.066641515246710E-004
                   125  1.460795159114040E-004
                   126 -2.652326679179700E-005
                   127  4.112480818720380E-005
                   128 -7.831385578784380E-004
                   129  1.048062836124790E-006
                   130  2.311291392983350E-005
                   131  3.289384463973570E-004
                   132  1.599462103581460E-005
                   133 -1.397080288258980E-004
                   134  6.901471308742820E-004
                   135 -1.533600947530529E-005
                   136  1.768537418896480E-006
                   137  2.284301038717970E-006
                   138  7.638150935347240E-007
                   139  1.405252904474100E-006
                   140 -1.813550044184155E-004
                   141 -1.603966538538660E-005
                   142  1.544709329996910E-004
                   143  1.648697730090906E-005
                   144 -7.971786505397060E-006
                   145 -3.701286824274273E-005
                   146  4.252985893474055E-007
                   147  2.366940383248008E-007
                   148 -8.968686385032459E-006
                   149 -1.295406674504900E-006
                   150 -6.658924968484166E-007
                   151 -3.259963960937843E-006
                   152 -1.510836485380280E-004
                   153 -1.125495059904690E-005
                   154  1.061838269344620E-004
                   155  1.491087639023930E-004
                   156  2.629083334907480E-005
                   157 -4.100745151681530E-005
                   158 -7.831182583518691E-004
                   159 -9.293538855987440E-007
                   160 -2.349502622907170E-005
                   161  3.285794339322510E-004
                   162 -1.581819176649350E-005
                   163  1.402040936869270E-004
                   164  6.903328492816940E-004
                   165 -1.528123347697867E-005
                   166 -1.777417472846430E-006
                   167 -2.290508292041250E-006
                   168  7.112896657525100E-007
                   169  1.400929925160620E-006
                   170 -1.812489668870592E-004
                   171  1.594565256521380E-005
                   172 -1.547033782584110E-004
                   173  1.643454166387198E-005
                   174 -8.017050793245709E-006
                   175 -3.692567213811019E-005
                   176 -3.931285225717324E-007
                   177 -2.345481857730529E-007
                   178 -9.019662034950880E-006
                   179 -1.299637455168380E-006
                   180  6.692177781310567E-007
                   181  3.269791461907783E-006
                   182 -1.258653288964700E-004
                   183 -3.383197113906560E-004
                   184  3.108865998838320E-005
                   185  1.690993832350900E-004
                   186 -1.236698731904170E-008
                   187  8.849771699632620E-008
                   188 -4.337897427922620E-005
                   189  2.050790686709680E-008
                   190 -4.344393730350230E-007
                   191  1.713946281615150E-005
                   192  7.171239547809210E-009
                   193 -4.044109480215830E-008
                   194  2.684470179129830E-005
                   195  1.868873921836443E-005
                   196  2.511241260832140E-009
                   197  2.232184766960830E-008
                   198  8.441778847445340E-006
                   199  6.691356420459410E-007
                   200  5.517827463242659E-005
                   201  1.450151319532040E-009
                   202  2.066285756362360E-007
                   203  4.384118318979260E-005
                   204 -5.661537782555780E-006
                   205 -1.170072932353809E-005
                   206  3.893105013697424E-009
                   207 -9.679334683305324E-009
                   208  3.341410074425000E-006
                   209  1.696745744082890E-006
                   210  1.769569722579386E-009
                   211  2.739094179387425E-008
                   212  3.865555300977650E-003
                   213 -2.324472913868360E-003
                   214  2.011321144305490E-004
                   215  4.232602498166330E-004
                   216  3.705811039210430E-004
                   217  3.865530832584770E-003
                   218 -2.324462560588500E-003
                   219 -2.010252507027980E-004
                   220 -4.232876147547200E-004
                   221  3.706078582799990E-004
                   222 -6.421617422336640E-004
                   223 -1.710314049423920E-004
                   224  1.896657141757120E-006
                   225 -2.073215584395000E-005
                   226 -4.320860032273060E-005
                   227 -6.422307072848540E-004
                   228 -1.706576128666730E-004
                   229 -1.909048599411960E-006
                   230  2.071735754461480E-005
                   231 -4.323306127122420E-005
                   232 -2.312548969355020E-004
                   233 -3.833454725225300E-004
                   234 -2.093835371179250E-006
                   235 -6.770693907271220E-006
                   236  4.689094473878520E-006
                   237 -2.312945036862250E-004
                   238 -3.835066990928890E-004
                   239  2.092852202098390E-006
                   240  6.816573742568290E-006
                   241  4.736240016572640E-006
                   242  6.875651338467900E-005
                   243 -1.101761432380750E-004
                   244  2.152968274728590E-009
                   245 -2.178112719117980E-008
                   246  1.485521871313950E-005
 Sym= __2_a__
 Ene=  0.000000000000000E+000
 Spin= Alpha
 Occup=    2.00000000000000     
                     1 -4.028442899498630E-005
                     2 -1.913035738754910E-004
                     3  2.231325053667780E-003
                     4  9.384730007181040E-005
                     5  1.261746599233590E-003
                     6  4.074146586168630E-007
                     7 -1.071766272252710E-007
                     8  2.855540178816380E-003
                     9 -7.797568726381860E-009
                    10 -1.069451219664590E-009
                    11 -6.129381449693609E-005
                    12 -6.016712322430930E-008
                    13  2.317064170978950E-008
                    14 -4.397778821557890E-004
                    15  4.396583349659328E-005
                    16  2.155123856240860E-009
                    17 -1.186213836560610E-009
                    18  5.290206738113600E-005
                    19 -2.365717603629230E-005
                    20 -2.486927621038064E-004
                    21 -1.943400931072280E-008
                    22  7.533801785824749E-009
                    23 -2.543067861395280E-004
                    24  1.289202638387640E-004
                    25  1.861321617835527E-004
                    26 -6.308516902240146E-008
                    27  2.509719263413307E-008
                    28 -1.416446546928454E-005
                    29 -2.762167072618420E-005
                    30  3.964112524047106E-009
                    31 -3.441667805442260E-009
                    32   1.00105589233842     
                    33  9.197577742983220E-003
                    34  2.622914193027300E-003
                    35 -7.773625936377550E-003
                    36 -5.727372839178700E-007
                    37  1.502263033106760E-007
                    38 -3.991385781164370E-003
                    39  1.532295692476160E-007
                    40 -4.068435284433830E-008
                    41  1.070556718971860E-003
                    42  6.244282488382490E-007
                    43 -2.365335967700250E-007
                    44  4.326894828892030E-003
                    45  4.458549368649214E-004
                    46  1.718267866748850E-007
                    47 -1.859706908190560E-008
                    48 -4.207286048273340E-004
                    49  1.582321354773580E-005
                    50  5.141668483363341E-004
                    51  1.228755211155320E-011
                    52 -5.684492747829550E-008
                    53  8.909624279099640E-004
                    54 -2.255638600658890E-005
                    55  3.714909934045522E-004
                    56 -8.513746796152511E-008
                    57  4.395973823510535E-008
                    58 -1.994535075096452E-004
                    59  1.179321479312790E-005
                    60  3.460980788729932E-008
                    61  1.322541533684356E-008
                    62  7.787218539269770E-003
                    63 -2.016141232907260E-003
                    64 -2.725729308278130E-004
                    65  2.998929959907090E-003
                    66  7.007372053543810E-006
                    67  1.157349019371790E-004
                    68 -3.089121786841590E-005
                    69 -3.323873713503370E-005
                    70  5.782307258933860E-004
                    71  5.038673162794950E-005
                    72  6.084919503118630E-005
                    73 -2.039526805716770E-003
                    74  9.644073427799930E-005
                    75 -1.628318833286267E-005
                    76  1.264003380843820E-006
                    77  1.543143717515580E-005
                    78  2.931715158027940E-005
                    79  1.994066924114110E-006
                    80  7.585248625678705E-004
                    81  2.550963986316880E-005
                    82 -4.185184502374440E-004
                    83 -1.605245676572300E-005
                    84 -1.641854432969040E-005
                    85  6.963674190984170E-005
                    86 -7.116460234422278E-007
                    87  4.177732753878119E-005
                    88 -1.245308289478400E-004
                    89  1.349411454895180E-006
                    90  1.887055308412253E-006
                    91  4.971292743987785E-005
                    92  7.787192610975680E-003
                    93 -2.016224697995010E-003
                    94 -2.726150489828470E-004
                    95  2.999127734408010E-003
                    96 -7.015595745802490E-006
                    97 -1.157332436589190E-004
                    98 -3.092109069319310E-005
                    99  3.325187660277170E-005
                   100 -5.782344273677460E-004
                   101  5.046100597473700E-005
                   102 -6.082723918703240E-005
                   103  2.039643917299590E-003
                   104  9.646154591468510E-005
                   105 -1.627086141300896E-005
                   106 -1.280525221721640E-006
                   107 -1.543810860850820E-005
                   108  2.931403634071780E-005
                   109  1.989795774237970E-006
                   110  7.586545834059454E-004
                   111 -2.513120339721740E-005
                   112  4.184695474215860E-004
                   113 -1.600854460238328E-005
                   114 -1.629579728806360E-005
                   115  6.963196757934656E-005
                   116  7.189262315358568E-007
                   117 -4.174662528667724E-005
                   118 -1.245387461043614E-004
                   119  1.347739790898750E-006
                   120 -1.843139632325455E-006
                   121 -4.969907331072186E-005
                   122 -2.237349089803680E-004
                   123 -7.504688993424650E-004
                   124  2.248538023202080E-004
                   125 -1.227065346519210E-004
                   126 -4.826021435412970E-006
                   127 -2.200177385988700E-005
                   128 -2.452132066788960E-004
                   129  9.501776141171680E-006
                   130 -1.638394056156480E-006
                   131  5.422399131417850E-004
                   132 -1.100970661207410E-005
                   133  3.156619895235690E-004
                   134  7.365686539681210E-004
                   135 -1.548210634150194E-005
                   136 -2.487764484895470E-006
                   137  5.099819022258850E-005
                   138  1.423796741962880E-005
                   139  1.627427502133730E-006
                   140 -2.944542653227195E-004
                   141  3.659334870233540E-006
                   142 -2.228978370226900E-004
                   143 -1.620462207170816E-005
                   144 -6.785442304720750E-006
                   145 -5.738315081699005E-007
                   146  2.600404788066050E-006
                   147 -3.828709092021427E-005
                   148 -3.825825238703820E-005
                   149 -2.528214188863200E-006
                   150  8.532599395648214E-007
                   151 -6.110809035647305E-006
                   152 -2.234500784069980E-004
                   153 -7.495234594614100E-004
                   154  2.249154602703750E-004
                   155 -1.237045279055720E-004
                   156  4.756193269597840E-006
                   157  2.201173772305270E-005
                   158 -2.452164654692470E-004
                   159 -9.348861333545240E-006
                   160  1.639139159164290E-006