[Molden Format]
[Atoms] AU
  N     1    7     0.0000000000    0.0000000000   -4.3813004600        
  C     2    6     0.0000000000    0.0000000000   -1.7855963500        
  C     3    6     0.0000000000   -2.2719783800   -0.4342937800        
  C     4    6     0.0000000000    2.2719783800   -0.4342937800        
  C     5    6     0.0000000000   -2.2622891800    2.1884667600        
  C     6    6     0.0000000000    2.2622891800    2.1884667600        
  C     7    6     0.0000000000    0.0000000000    3.5288214200        
  H     8    1     0.0000000000   -1.6209094600   -5.3464051600        
  H     9    1     0.0000000000    1.6209094600   -5.3464051600        
  H    10    1     0.0000000000   -4.0404809200   -1.4495706800        
  H    11    1     0.0000000000    4.0404809200   -1.4495706800        
  H    12    1     0.0000000000   -4.0384201800    3.1872129000        
  H    13    1     0.0000000000    4.0384201800    3.1872129000        
  H    14    1     0.0000000000    0.0000000000    5.5632925300        
[5D]
[7F]
[GTO]
  1  0
   s    12 1.00
  0.114200D+05  0.172695D-04
  0.171200D+04  0.134411D-03
  0.389300D+03  0.694561D-03
  0.110000D+03  0.278531D-02
  0.355700D+02  0.863457D-02
  0.125400D+02  0.199805D-01
  0.464400D+01  0.262908D-01
  0.129300D+01 -0.243845D-01
  0.511800D+00 -0.924934D-01
  0.178700D+00 -0.339683D+00
  0.246240D-01  0.345111D+00
  0.112530D-01  0.752750D+00
   s    10 1.00
  0.114200D+05  0.523000D-03
  0.171200D+04  0.404500D-02
  0.389300D+03  0.207750D-01
  0.110000D+03  0.807269D-01
  0.355700D+02  0.233074D+00
  0.125400D+02  0.433501D+00
  0.464400D+01  0.347472D+00
  0.129300D+01  0.412620D-01
  0.511800D+00 -0.850799D-02
  0.178700D+00  0.238400D-02
   s    10 1.00
  0.114200D+05 -0.115000D-03
  0.171200D+04 -0.895000D-03
  0.389300D+03 -0.462400D-02
  0.110000D+03 -0.185280D-01
  0.355700D+02 -0.573390D-01
  0.125400D+02 -0.132076D+00
  0.464400D+01 -0.172510D+00
  0.129300D+01  0.151814D+00
  0.511800D+00  0.599944D+00
  0.178700D+00  0.387462D+00
   s     1 1.00
  0.129300D+01  0.100000D+01
   s     1 1.00
  0.178700D+00  0.100000D+01
   p     5 1.00
  0.266300D+02  0.146700D-01
  0.594800D+01  0.917640D-01
  0.174200D+01  0.298683D+00
  0.555000D+00  0.498487D+00
  0.172500D+00  0.337023D+00
   p     1 1.00
  0.174200D+01  0.100000D+01
   p     1 1.00
  0.555000D+00  0.100000D+01
   d     1 1.00
  0.165400D+01  0.100000D+01
   d     1 1.00
  0.469000D+00  0.100000D+01
   f     1 1.00
  0.109300D+01  0.100000D+01
  
  2  0
   s    10 1.00
  0.823600D+04  0.531000D-03
  0.123500D+04  0.410800D-02
  0.280800D+03  0.210870D-01
  0.792700D+02  0.818530D-01
  0.255900D+02  0.234817D+00
  0.899700D+01  0.434401D+00
  0.331900D+01  0.346129D+00
  0.905900D+00  0.393780D-01
  0.364300D+00 -0.898300D-02
  0.128500D+00  0.238500D-02
   s    10 1.00
  0.823600D+04 -0.113000D-03
  0.123500D+04 -0.878000D-03
  0.280800D+03 -0.454000D-02
  0.792700D+02 -0.181330D-01
  0.255900D+02 -0.557600D-01
  0.899700D+01 -0.126895D+00
  0.331900D+01 -0.170352D+00
  0.905900D+00  0.140382D+00
  0.364300D+00  0.598684D+00
  0.128500D+00  0.395389D+00
   s     1 1.00
  0.905900D+00  0.100000D+01
   s     1 1.00
  0.364300D+00  0.100000D+01
   p     5 1.00
  0.187100D+02  0.140310D-01
  0.413300D+01  0.868660D-01
  0.120000D+01  0.290216D+00
  0.382700D+00  0.501008D+00
  0.120900D+00  0.343406D+00
   p     1 1.00
  0.382700D+00  0.100000D+01
   p     1 1.00
  0.120900D+00  0.100000D+01
   d     1 1.00
  0.109700D+01  0.100000D+01
   d     1 1.00
  0.318000D+00  0.100000D+01
   f     1 1.00
  0.761000D+00  0.100000D+01
  
  3  0
   s    10 1.00
  0.823600D+04  0.531000D-03
  0.123500D+04  0.410800D-02
  0.280800D+03  0.210870D-01
  0.792700D+02  0.818530D-01
  0.255900D+02  0.234817D+00
  0.899700D+01  0.434401D+00
  0.331900D+01  0.346129D+00
  0.905900D+00  0.393780D-01
  0.364300D+00 -0.898300D-02
  0.128500D+00  0.238500D-02
   s    10 1.00
  0.823600D+04 -0.113000D-03
  0.123500D+04 -0.878000D-03
  0.280800D+03 -0.454000D-02
  0.792700D+02 -0.181330D-01
  0.255900D+02 -0.557600D-01
  0.899700D+01 -0.126895D+00
  0.331900D+01 -0.170352D+00
  0.905900D+00  0.140382D+00
  0.364300D+00  0.598684D+00
  0.128500D+00  0.395389D+00
   s     1 1.00
  0.905900D+00  0.100000D+01
   s     1 1.00
  0.364300D+00  0.100000D+01
   p     5 1.00
  0.187100D+02  0.140310D-01
  0.413300D+01  0.868660D-01
  0.120000D+01  0.290216D+00
  0.382700D+00  0.501008D+00
  0.120900D+00  0.343406D+00
   p     1 1.00
  0.382700D+00  0.100000D+01
   p     1 1.00
  0.120900D+00  0.100000D+01
   d     1 1.00
  0.109700D+01  0.100000D+01
   d     1 1.00
  0.318000D+00  0.100000D+01
   f     1 1.00
  0.761000D+00  0.100000D+01
  
  4  0
   s    10 1.00
  0.823600D+04  0.531000D-03
  0.123500D+04  0.410800D-02
  0.280800D+03  0.210870D-01
  0.792700D+02  0.818530D-01
  0.255900D+02  0.234817D+00
  0.899700D+01  0.434401D+00
  0.331900D+01  0.346129D+00
  0.905900D+00  0.393780D-01
  0.364300D+00 -0.898300D-02
  0.128500D+00  0.238500D-02
   s    10 1.00
  0.823600D+04 -0.113000D-03
  0.123500D+04 -0.878000D-03
  0.280800D+03 -0.454000D-02
  0.792700D+02 -0.181330D-01
  0.255900D+02 -0.557600D-01
  0.899700D+01 -0.126895D+00
  0.331900D+01 -0.170352D+00
  0.905900D+00  0.140382D+00
  0.364300D+00  0.598684D+00
  0.128500D+00  0.395389D+00
   s     1 1.00
  0.905900D+00  0.100000D+01
   s     1 1.00
  0.364300D+00  0.100000D+01
   p     5 1.00
  0.187100D+02  0.140310D-01
  0.413300D+01  0.868660D-01
  0.120000D+01  0.290216D+00
  0.382700D+00  0.501008D+00
  0.120900D+00  0.343406D+00
   p     1 1.00
  0.382700D+00  0.100000D+01
   p     1 1.00
  0.120900D+00  0.100000D+01
   d     1 1.00
  0.109700D+01  0.100000D+01
   d     1 1.00
  0.318000D+00  0.100000D+01
   f     1 1.00
  0.761000D+00  0.100000D+01
  
  5  0
   s    10 1.00
  0.823600D+04  0.531000D-03
  0.123500D+04  0.410800D-02
  0.280800D+03  0.210870D-01
  0.792700D+02  0.818530D-01
  0.255900D+02  0.234817D+00
  0.899700D+01  0.434401D+00
  0.331900D+01  0.346129D+00
  0.905900D+00  0.393780D-01
  0.364300D+00 -0.898300D-02
  0.128500D+00  0.238500D-02
   s    10 1.00
  0.823600D+04 -0.113000D-03
  0.123500D+04 -0.878000D-03
  0.280800D+03 -0.454000D-02
  0.792700D+02 -0.181330D-01
  0.255900D+02 -0.557600D-01
  0.899700D+01 -0.126895D+00
  0.331900D+01 -0.170352D+00
  0.905900D+00  0.140382D+00
  0.364300D+00  0.598684D+00
  0.128500D+00  0.395389D+00
   s     1 1.00
  0.905900D+00  0.100000D+01
   s     1 1.00
  0.364300D+00  0.100000D+01
   p     5 1.00
  0.187100D+02  0.140310D-01
  0.413300D+01  0.868660D-01
  0.120000D+01  0.290216D+00
  0.382700D+00  0.501008D+00
  0.120900D+00  0.343406D+00
   p     1 1.00
  0.382700D+00  0.100000D+01
   p     1 1.00
  0.120900D+00  0.100000D+01
   d     1 1.00
  0.109700D+01  0.100000D+01
   d     1 1.00
  0.318000D+00  0.100000D+01
   f     1 1.00
  0.761000D+00  0.100000D+01
  
  6  0
   s    10 1.00
  0.823600D+04  0.531000D-03
  0.123500D+04  0.410800D-02
  0.280800D+03  0.210870D-01
  0.792700D+02  0.818530D-01
  0.255900D+02  0.234817D+00
  0.899700D+01  0.434401D+00
  0.331900D+01  0.346129D+00
  0.905900D+00  0.393780D-01
  0.364300D+00 -0.898300D-02
  0.128500D+00  0.238500D-02
   s    10 1.00
  0.823600D+04 -0.113000D-03
  0.123500D+04 -0.878000D-03
  0.280800D+03 -0.454000D-02
  0.792700D+02 -0.181330D-01
  0.255900D+02 -0.557600D-01
  0.899700D+01 -0.126895D+00
  0.331900D+01 -0.170352D+00
  0.905900D+00  0.140382D+00
  0.364300D+00  0.598684D+00
  0.128500D+00  0.395389D+00
   s     1 1.00
  0.905900D+00  0.100000D+01
   s     1 1.00
  0.364300D+00  0.100000D+01
   p     5 1.00
  0.187100D+02  0.140310D-01
  0.413300D+01  0.868660D-01
  0.120000D+01  0.290216D+00
  0.382700D+00  0.501008D+00
  0.120900D+00  0.343406D+00
   p     1 1.00
  0.382700D+00  0.100000D+01
   p     1 1.00
  0.120900D+00  0.100000D+01
   d     1 1.00
  0.109700D+01  0.100000D+01
   d     1 1.00
  0.318000D+00  0.100000D+01
   f     1 1.00
  0.761000D+00  0.100000D+01
  
  7  0
   s    10 1.00
  0.823600D+04  0.531000D-03
  0.123500D+04  0.410800D-02
  0.280800D+03  0.210870D-01
  0.792700D+02  0.818530D-01
  0.255900D+02  0.234817D+00
  0.899700D+01  0.434401D+00
  0.331900D+01  0.346129D+00
  0.905900D+00  0.393780D-01
  0.364300D+00 -0.898300D-02
  0.128500D+00  0.238500D-02
   s    10 1.00
  0.823600D+04 -0.113000D-03
  0.123500D+04 -0.878000D-03
  0.280800D+03 -0.454000D-02
  0.792700D+02 -0.181330D-01
  0.255900D+02 -0.557600D-01
  0.899700D+01 -0.126895D+00
  0.331900D+01 -0.170352D+00
  0.905900D+00  0.140382D+00
  0.364300D+00  0.598684D+00
  0.128500D+00  0.395389D+00
   s     1 1.00
  0.905900D+00  0.100000D+01
   s     1 1.00
  0.364300D+00  0.100000D+01
   p     5 1.00
  0.187100D+02  0.140310D-01
  0.413300D+01  0.868660D-01
  0.120000D+01  0.290216D+00
  0.382700D+00  0.501008D+00
  0.120900D+00  0.343406D+00
   p     1 1.00
  0.382700D+00  0.100000D+01
   p     1 1.00
  0.120900D+00  0.100000D+01
   d     1 1.00
  0.109700D+01  0.100000D+01
   d     1 1.00
  0.318000D+00  0.100000D+01
   f     1 1.00
  0.761000D+00  0.100000D+01
  
  8  0
   s     4 1.00
  0.130100D+02  0.196850D-01
  0.196200D+01  0.137977D+00
  0.444600D+00  0.478148D+00
  0.122000D+00  0.501240D+00
   s     1 1.00
  0.122000D+00  0.100000D+01
   p     1 1.00
  0.727000D+00  0.100000D+01
  
  9  0
   s     4 1.00
  0.130100D+02  0.196850D-01
  0.196200D+01  0.137977D+00
  0.444600D+00  0.478148D+00
  0.122000D+00  0.501240D+00
   s     1 1.00
  0.122000D+00  0.100000D+01
   p     1 1.00
  0.727000D+00  0.100000D+01
  
 10  0
   s     4 1.00
  0.130100D+02  0.196850D-01
  0.196200D+01  0.137977D+00
  0.444600D+00  0.478148D+00
  0.122000D+00  0.501240D+00
   s     1 1.00
  0.122000D+00  0.100000D+01
   p     1 1.00
  0.727000D+00  0.100000D+01
  
 11  0
   s     4 1.00
  0.130100D+02  0.196850D-01
  0.196200D+01  0.137977D+00
  0.444600D+00  0.478148D+00
  0.122000D+00  0.501240D+00
   s     1 1.00
  0.122000D+00  0.100000D+01
   p     1 1.00
  0.727000D+00  0.100000D+01
  
 12  0
   s     4 1.00
  0.130100D+02  0.196850D-01
  0.196200D+01  0.137977D+00
  0.444600D+00  0.478148D+00
  0.122000D+00  0.501240D+00
   s     1 1.00
  0.122000D+00  0.100000D+01
   p     1 1.00
  0.727000D+00  0.100000D+01
  
 13  0
   s     4 1.00
  0.130100D+02  0.196850D-01
  0.196200D+01  0.137977D+00
  0.444600D+00  0.478148D+00
  0.122000D+00  0.501240D+00
   s     1 1.00
  0.122000D+00  0.100000D+01
   p     1 1.00
  0.727000D+00  0.100000D+01
  
 14  0
   s     4 1.00
  0.130100D+02  0.196850D-01
  0.196200D+01  0.137977D+00
  0.444600D+00  0.478148D+00
  0.122000D+00  0.501240D+00
   s     1 1.00
  0.122000D+00  0.100000D+01
   p     1 1.00
  0.727000D+00  0.100000D+01
  
[MO]
 Sym= __1_A__
 Ene=  0.000000000000000E+000
 Spin= Alpha
 Occup=    2.00000000000000     
                     1  2.215456621735622E-005
                     2  0.998200511472601     
                     3  6.786788968667923E-004
                     4  2.185047881892873E-003
                     5  3.137881984082537E-003
                     6  2.372020422699088E-012
                     7  5.181708292540906E-009
                     8  3.439966027281002E-003
                     9 -2.756104438837593E-012
                    10  6.119676467423889E-009
                    11 -6.249992449729840E-005
                    12  2.778715475160265E-012
                    13 -4.015896162732225E-008
                    14 -4.476163971133171E-004
                    15  1.402382635050194E-004
                    16 -1.912489701953522E-012
                    17 -3.369955068140754E-010
                    18 -7.541709768350455E-005
                    19 -5.913580756918305E-013
                    20 -1.206329210910395E-004
                    21  2.268878228427162E-012
                    22  4.625495988918366E-009
                    23  3.858199563608862E-004
                    24 -2.050388407290858E-012
                    25 -1.086686520718806E-004
                    26  1.673372350980035E-013
                    27 -3.787352225236140E-010
                    28  8.249167996836240E-005
                    29 -4.885209751189503E-013
                    30  8.347090198296653E-013
                    31  7.310607759604606E-010
                    32 -1.547978545303361E-004
                    33  1.440835272993118E-003
                    34  2.252116425313082E-005
                    35  3.763446806238175E-005
                    36  1.291590537022535E-011
                    37  1.662038523880688E-008
                    38 -3.532228021581194E-003
                    39 -1.769519613499370E-011
                    40 -6.799037646577402E-008
                    41 -5.187541929685302E-004
                    42 -1.855130234520124E-012
                    43 -6.317704660132291E-008
                    44  3.486370763538709E-003
                    45  2.303554201554169E-004
                    46 -2.962707221765582E-012
                    47  3.278310699350820E-009
                    48  8.711269491662968E-005
                    49  5.967807237764923E-013
                    50  3.381083536916810E-004
                    51  9.440231815335225E-013
                    52 -8.118311933946758E-008
                    53 -1.847874613318335E-004
                    54 -5.890185188892184E-012
                    55 -8.022321186459846E-005
                    56 -1.129701653024530E-013
                    57  8.709484374947898E-011
                    58  7.139717407250129E-005
                    59  6.191657003169693E-013
                    60 -4.779089041578270E-012
                    61  3.182737153972560E-009
                    62 -1.859603036451467E-004
                    63 -1.037356649078940E-003
                    64 -5.315626823488649E-006
                    65  6.714452716345421E-004
                    66 -4.042955159994617E-012
                    67 -4.133035472721000E-004
                    68  3.208909553217885E-004
                    69  6.002461849366981E-012
                    70  6.161629399350235E-005
                    71  4.278438008524964E-004
                    72 -4.312970255740667E-012
                    73 -5.465206483198120E-004
                    74 -2.942165033225439E-004
                    75  5.531618074123097E-005
                    76 -1.838579003587704E-012
                    77 -1.066109047090101E-005
                    78  7.650946039085118E-006
                    79  5.296062048976946E-013
                    80  8.459652787071431E-006
                    81  5.899041674151596E-012
                    82 -3.284352589374287E-005
                    83 -3.993556903225002E-005
                    84 -7.358922136349689E-013
                    85 -9.773170136375699E-005
                    86  2.066891526835790E-012
                    87 -3.010098601586695E-005
                    88  3.048020184062354E-005
                    89 -3.533458148115365E-012
                    90 -1.198237354438026E-012
                    91  6.530238609600270E-006
                    92 -1.859534808243398E-004
                    93 -1.037321992182561E-003
                    94 -5.240271266270242E-006
                    95  6.712198708685487E-004
                    96 -6.158163378767691E-012
                    97  4.133231014222226E-004
                    98  3.209567044647214E-004
                    99  2.028831231299806E-012
                   100 -6.172485760778368E-005
                   101  4.274807953151440E-004
                   102  3.824136850820840E-012
                   103  5.462534785399250E-004
                   104 -2.943020063005871E-004
                   105  5.530132490628405E-005
                   106  1.036063966129255E-012
                   107  1.066870361400565E-005
                   108  7.652025396201676E-006
                   109  8.253305514701197E-014
                   110  8.231533752170332E-006
                   111 -4.522451818941763E-012
                   112  3.281548065096522E-005
                   113 -3.999838056634136E-005
                   114 -6.663886020965265E-012
                   115 -9.769941412469626E-005
                   116  1.335061771068283E-012
                   117  3.009027093869843E-005
                   118  3.048190095916680E-005
                   119  2.206099362788284E-012
                   120 -7.502222907550826E-013
                   121 -6.529026837805826E-006
                   122 -1.084585632337438E-004
                   123 -1.467123346813360E-004
                   124  8.907425758650757E-005
                   125  1.211237549566823E-004
                   126  1.497740010782357E-012
                   127 -1.089165731107429E-006
                   128 -3.503711545720552E-004
                   129 -3.782545359268367E-012
                   130  1.005607861955588E-004
                   131  2.870013923617962E-004
                   132  3.412239467989027E-012
                   133 -1.909622001473320E-004
                   134  5.385345092317859E-004
                   135 -2.307777914783747E-005
                   136  4.703669720386082E-014
                   137 -5.457884691976193E-006
                   138 -4.577758455337060E-006
                   139 -3.189652522669819E-012
                   140 -1.776441411613444E-004
                   141  5.676057810177849E-012
                   142  9.205429678136460E-005
                   143  2.893973872512440E-005
                   144  1.335708345601537E-012
                   145 -4.463876142076712E-005
                   146 -2.724884249798216E-012
                   147  9.576398934304747E-006
                   148 -6.966617895946998E-006
                   149 -3.124120519312877E-012
                   150 -1.291653418247987E-012
                   151 -3.515319987481949E-006
                   152 -1.086744361625898E-004
                   153 -1.474690852338085E-004
                   154  8.890454795790842E-005
                   155  1.222925803948273E-004
                   156  5.815643871894753E-012
                   157  1.047070289886073E-006
                   158 -3.503206597901155E-004
                   159 -1.024179982817279E-012
                   160 -1.004791158621932E-004
                   161  2.866959955200572E-004
                   162 -3.512949783166058E-012
                   163  1.912669369339235E-004
                   164  5.384352548607101E-004
                   165 -2.305527698262163E-005
                   166 -1.801941550612393E-012
                   167  5.464594895875973E-006
                   168 -4.590907728622242E-006
                   169  2.641116783404927E-012
                   170 -1.775174491166888E-004
                   171 -4.166239216442807E-012
                   172 -9.207771249566030E-005
                   173  2.896747508247024E-005
                   174  6.587085534901353E-012
                   175 -4.459978790620335E-005
                   176 -8.745353222652327E-013
                   177 -9.561291680163423E-006
                   178 -6.979261545050366E-006
                   179  3.091300969117844E-012
                   180 -2.539107692887458E-012
                   181  3.508485488724499E-006
                   182 -6.917529037828975E-005
                   183 -1.914918158931828E-004
                   184  2.503530597791240E-005
                   185  7.503193600800897E-005
                   186 -2.570854052981859E-011
                   187 -1.012321291699623E-008
                   188 -3.268904802012823E-005
                   189  1.683635368793507E-011
                   190  1.428135801329543E-009
                   191  4.459772599838769E-005
                   192  3.783914322920057E-012
                   193  9.165359353199311E-008
                   194 -6.615139990024166E-005
                   195  1.208338715911145E-005
                   196 -1.095905768235042E-012
                   197  2.205723341062961E-009
                   198  5.049294562534302E-006
                   199 -5.361840307265652E-013
                   200  4.499216392043583E-005
                   201 -2.527944130039744E-012
                   202  6.854965874336214E-009
                   203  5.217096174559264E-005
                   204  8.477213424998778E-012
                   205 -2.814133694564560E-006
                   206 -1.439947111503380E-012
                   207 -4.413990682351319E-009
                   208 -4.617337901540158E-006
                   209 -1.881053735433064E-012
                   210  3.444399911721094E-012
                   211 -2.540716044286828E-010
                   212  1.131088892539502E-003
                   213 -1.125079982890370E-003
                   214 -2.099748003635199E-012
                   215  1.970037005532731E-004
                   216  1.742728747513560E-004
                   217  1.131143217015610E-003
                   218 -1.125102564847907E-003
                   219  2.463502817663771E-012
                   220 -1.970259217059221E-004
                   221  1.742822921969860E-004
                   222 -2.617533766957960E-004
                   223 -2.581579623914796E-004
                   224  1.747788915815621E-012
                   225  1.836233882695924E-006
                   226 -3.643873877875285E-005
                   227 -2.617956654348481E-004
                   228 -2.580300341457352E-004
                   229  1.893054633531357E-012
                   230 -1.846035447558156E-006
                   231 -3.645366590423496E-005
                   232 -5.012609708888305E-005
                   233 -3.418838346157397E-004
                   234 -1.216939733926098E-012
                   235  6.398843107713262E-006
                   236 -3.432101718606867E-006
                   237 -5.020291391073625E-005
                   238 -3.419057192612582E-004
                   239 -2.384949103092125E-012
                   240 -6.361701687823095E-006
                   241 -3.415874989988100E-006
                   242  2.101312377117224E-005
                   243 -4.019108097135922E-005
                   244  2.122872359484196E-013
                   245 -5.749660597336814E-010
                   246  1.193053853218656E-005
 Sym= __2_A__
 Ene=  0.000000000000000E+000
 Spin= Alpha
 Occup=    2.00000000000000     
                     1 -4.642876411135560E-005
                     2 -1.254127621237023E-004
                     3  2.153549358768661E-003
                     4  1.328381773257796E-005
                     5  1.223400941601204E-003
                     6 -1.216316678416297E-011
                     7  7.706232267797112E-009
                     8  2.684840199896738E-003
                     9 -4.517898390559362E-012
                    10 -4.967517084153850E-009
                    11 -1.020513501121799E-004
                    12  7.510983642548079E-012
                    13  5.151896092663634E-009
                    14 -2.621395751902445E-004
                    15  6.664583933139002E-005
                    16  4.642472739005898E-013
                    17  2.628649833772779E-010
                    18  6.263530936580453E-005
                    19 -2.038314247953604E-013
                    20 -2.309779033361753E-004
                    21 -1.885965006435744E-012
                    22  7.839374950951064E-010
                    23 -3.314871658222170E-004
                    24  4.011083653032887E-012
                    25  2.042414218082491E-004
                    26 -5.142297611059453E-012
                    27 -2.445075327837159E-009
                    28 -1.355888693750160E-005
                    29  4.053462747458457E-013
                    30 -3.200895517877182E-012
                    31  6.706552094620933E-010
                    32   1.00098923749968     
                    33  9.112260753975485E-003
                    34  2.787288472740407E-003
                    35 -7.882974598497215E-003
                    36 -1.320217179139726E-011
                    37 -6.700555721687298E-009
                    38 -3.967252335362486E-003
                    39  1.804953240745802E-011
                    40  1.233371382967308E-009
                    41  1.576315379019262E-003
                    42  1.990309689124439E-012
                    43 -8.038246462942241E-008
                    44  4.159423276507467E-003
                    45  3.475243810553842E-004
                    46  5.092554815513955E-012
                    47 -3.478695215197352E-009
                    48 -4.785432506568564E-004
                    49  2.560825583034768E-012
                    50  4.807024543943420E-004
                    51 -2.630775199327130E-012
                    52  1.589316938688697E-008
                    53  9.720565819138358E-004
                    54 -4.344120940834199E-012
                    55  3.330639608719023E-004
                    56 -1.476729878220721E-012
                    57  9.751431665915856E-010
                    58 -2.428325409924702E-004
                    59  4.449754231101256E-013
                    60  3.080442393831080E-012
                    61  1.660791495560579E-009
                    62  8.856826473610848E-003
                    63 -2.084195777013718E-003
                    64 -2.832412670158843E-004
                    65  3.143361405508542E-003
                    66  3.832367957538461E-012
                    67  1.776546963054492E-004
                    68 -9.735432257284843E-005
                    69 -1.813304681923097E-011
                    70  4.716726360892209E-004
                    71  2.956241908592129E-005
                    72 -1.354227216119693E-012
                    73 -1.962305510082558E-003
                    74  1.999643299945598E-004
                    75 -2.121874225579905E-005
                    76 -1.586473292978957E-012
                    77  3.377850104226084E-005
                    78  4.068252562973512E-005
                    79 -2.509087302227021E-012
                    80  8.855094452345713E-004
                    81  2.806719048602777E-012
                    82 -4.353362215393681E-004
                    83  1.647169888792117E-005
                    84  2.292532474848703E-012
                    85  5.881180537267379E-005
                    86 -1.265622035575362E-012
                    87  3.214159129303111E-005
                    88 -1.128592233731914E-004
                    89  2.026988037577590E-012
                    90 -7.505440559374271E-012
                    91  5.240244224894013E-005
                    92  8.856800698187140E-003
                    93 -2.084287383862032E-003
                    94 -2.832914266215169E-004
                    95  3.143575657905874E-003
                    96  3.330849870482726E-012
                    97 -1.776562433157806E-004
                    98 -9.738275776729888E-005
                    99 -9.358433439147983E-012
                   100 -4.716636332469176E-004
                   101  2.970980939311391E-005
                   102 -3.801024328422045E-012
                   103  1.962455487575015E-003
                   104  1.997872373382260E-004
                   105 -2.120450205282629E-005
                   106  4.014103127995245E-012
                   107 -3.378538440043434E-005
                   108  4.068088096630218E-005
                   109 -6.033786776133906E-013
                   110  8.855922057091977E-004
                   111 -7.530681458605958E-012
                   112  4.353938835489795E-004
                   113  1.649421979085277E-005
                   114 -5.122866049821420E-012
                   115  5.879455135285009E-005
                   116 -1.530287972570020E-012
                   117 -3.213998142401595E-005
                   118 -1.128563304198399E-004
                   119 -1.742953503973673E-012
                   120 -3.650058695711945E-012
                   121 -5.240126352604369E-005
                   122 -2.274289271843460E-004
                   123 -7.693059759135433E-004
                   124  2.478885723473903E-004
                   125 -2.421186709368926E-004
                   126  9.100197775769533E-012
                   127 -3.693674255720731E-005
                   128 -2.127609438696842E-004
                   129  4.300150929298273E-012
                   130  2.779111807984569E-005
                   131  5.847599306800009E-004
                   132  6.875630394203180E-012
                   133  3.512820635847304E-004
                   134  6.447156852302453E-004
                   135 -2.410799662358901E-005
                   136  4.090048957092357E-012
                   137  4.414109774383624E-005
                   138  1.626015733839137E-005
                   139  4.549486579266222E-013
                   140 -3.254373841647881E-004
                   141 -2.938177237676164E-012
                   142 -2.472702056744818E-004
                   143 -4.112392857018242E-005
                   144  5.647187720107382E-012
                   145 -5.548238420144785E-006
                   146  8.248965143502543E-014
                   147 -2.782943975614858E-005
                   148 -2.918544737471062E-005
                   149  6.592750152090238E-012
                   150  2.859222765230030E-012
                   151 -5.445031046725515E-006
                   152 -2.271267089730638E-004
                   153 -7.682980453752313E-004
                   154  2.479831616443027E-004
                   155 -2.432666463551560E-004
                   156  1.591836836388850E-011
                   157  3.692381026795672E-005
                   158 -2.127643114158554E-004
                   159 -8.461176876889444E-012
                   160 -2.771712102653061E-005