[Molden Format]
[Atoms] AU
  N     1    7    -4.5082829200   -0.1342819900   -0.4228200100        
  C     2    6    -1.7496705200   -0.0824342700   -0.1838819400        
  C     3    6    -0.3491890900    0.2202010900   -2.3813599000        
  C     4    6    -0.4819141000   -0.3194027500    2.1144844200        
  C     5    6     2.2679837200    0.2851297300   -2.2867536700        
  C     6    6     2.1285900100   -0.2535069600    2.1993448600        
  C     7    6     3.5096699900    0.0491470500   -0.0030301700        
  H     8    1    -5.1840567300   -2.1697885400    0.7751543100        
  H     9    1    -5.2312650200    1.3935123600    1.0889586400        
  H    10    1    -1.3260875200    0.4019365300   -4.1451509600        
  H    11    1    -1.5448115400   -0.5543420500    3.8263524900        
  H    12    1     3.3318141500    0.5199799700   -3.9976458500        
  H    13    1     3.0845146800   -0.4378414600    3.9798216900        
  H    14    1     5.5368142800    0.0998677000    0.0666404700        
[5D]
[7F]
[GTO]
  1  0
   s    12 1.00
  0.114200D+05  0.172695D-04
  0.171200D+04  0.134411D-03
  0.389300D+03  0.694561D-03
  0.110000D+03  0.278531D-02
  0.355700D+02  0.863457D-02
  0.125400D+02  0.199805D-01
  0.464400D+01  0.262908D-01
  0.129300D+01 -0.243845D-01
  0.511800D+00 -0.924934D-01
  0.178700D+00 -0.339683D+00
  0.246240D-01  0.345111D+00
  0.112530D-01  0.752750D+00
   s    10 1.00
  0.114200D+05  0.523000D-03
  0.171200D+04  0.404500D-02
  0.389300D+03  0.207750D-01
  0.110000D+03  0.807269D-01
  0.355700D+02  0.233074D+00
  0.125400D+02  0.433501D+00
  0.464400D+01  0.347472D+00
  0.129300D+01  0.412620D-01
  0.511800D+00 -0.850799D-02
  0.178700D+00  0.238400D-02
   s    10 1.00
  0.114200D+05 -0.115000D-03
  0.171200D+04 -0.895000D-03
  0.389300D+03 -0.462400D-02
  0.110000D+03 -0.185280D-01
  0.355700D+02 -0.573390D-01
  0.125400D+02 -0.132076D+00
  0.464400D+01 -0.172510D+00
  0.129300D+01  0.151814D+00
  0.511800D+00  0.599944D+00
  0.178700D+00  0.387462D+00
   s     1 1.00
  0.129300D+01  0.100000D+01
   s     1 1.00
  0.178700D+00  0.100000D+01
   p     5 1.00
  0.266300D+02  0.146700D-01
  0.594800D+01  0.917640D-01
  0.174200D+01  0.298683D+00
  0.555000D+00  0.498487D+00
  0.172500D+00  0.337023D+00
   p     1 1.00
  0.174200D+01  0.100000D+01
   p     1 1.00
  0.555000D+00  0.100000D+01
   d     1 1.00
  0.165400D+01  0.100000D+01
   d     1 1.00
  0.469000D+00  0.100000D+01
   f     1 1.00
  0.109300D+01  0.100000D+01
  
  2  0
   s    10 1.00
  0.823600D+04  0.531000D-03
  0.123500D+04  0.410800D-02
  0.280800D+03  0.210870D-01
  0.792700D+02  0.818530D-01
  0.255900D+02  0.234817D+00
  0.899700D+01  0.434401D+00
  0.331900D+01  0.346129D+00
  0.905900D+00  0.393780D-01
  0.364300D+00 -0.898300D-02
  0.128500D+00  0.238500D-02
   s    10 1.00
  0.823600D+04 -0.113000D-03
  0.123500D+04 -0.878000D-03
  0.280800D+03 -0.454000D-02
  0.792700D+02 -0.181330D-01
  0.255900D+02 -0.557600D-01
  0.899700D+01 -0.126895D+00
  0.331900D+01 -0.170352D+00
  0.905900D+00  0.140382D+00
  0.364300D+00  0.598684D+00
  0.128500D+00  0.395389D+00
   s     1 1.00
  0.905900D+00  0.100000D+01
   s     1 1.00
  0.364300D+00  0.100000D+01
   p     5 1.00
  0.187100D+02  0.140310D-01
  0.413300D+01  0.868660D-01
  0.120000D+01  0.290216D+00
  0.382700D+00  0.501008D+00
  0.120900D+00  0.343406D+00
   p     1 1.00
  0.382700D+00  0.100000D+01
   p     1 1.00
  0.120900D+00  0.100000D+01
   d     1 1.00
  0.109700D+01  0.100000D+01
   d     1 1.00
  0.318000D+00  0.100000D+01
   f     1 1.00
  0.761000D+00  0.100000D+01
  
  3  0
   s    10 1.00
  0.823600D+04  0.531000D-03
  0.123500D+04  0.410800D-02
  0.280800D+03  0.210870D-01
  0.792700D+02  0.818530D-01
  0.255900D+02  0.234817D+00
  0.899700D+01  0.434401D+00
  0.331900D+01  0.346129D+00
  0.905900D+00  0.393780D-01
  0.364300D+00 -0.898300D-02
  0.128500D+00  0.238500D-02
   s    10 1.00
  0.823600D+04 -0.113000D-03
  0.123500D+04 -0.878000D-03
  0.280800D+03 -0.454000D-02
  0.792700D+02 -0.181330D-01
  0.255900D+02 -0.557600D-01
  0.899700D+01 -0.126895D+00
  0.331900D+01 -0.170352D+00
  0.905900D+00  0.140382D+00
  0.364300D+00  0.598684D+00
  0.128500D+00  0.395389D+00
   s     1 1.00
  0.905900D+00  0.100000D+01
   s     1 1.00
  0.364300D+00  0.100000D+01
   p     5 1.00
  0.187100D+02  0.140310D-01
  0.413300D+01  0.868660D-01
  0.120000D+01  0.290216D+00
  0.382700D+00  0.501008D+00
  0.120900D+00  0.343406D+00
   p     1 1.00
  0.382700D+00  0.100000D+01
   p     1 1.00
  0.120900D+00  0.100000D+01
   d     1 1.00
  0.109700D+01  0.100000D+01
   d     1 1.00
  0.318000D+00  0.100000D+01
   f     1 1.00
  0.761000D+00  0.100000D+01
  
  4  0
   s    10 1.00
  0.823600D+04  0.531000D-03
  0.123500D+04  0.410800D-02
  0.280800D+03  0.210870D-01
  0.792700D+02  0.818530D-01
  0.255900D+02  0.234817D+00
  0.899700D+01  0.434401D+00
  0.331900D+01  0.346129D+00
  0.905900D+00  0.393780D-01
  0.364300D+00 -0.898300D-02
  0.128500D+00  0.238500D-02
   s    10 1.00
  0.823600D+04 -0.113000D-03
  0.123500D+04 -0.878000D-03
  0.280800D+03 -0.454000D-02
  0.792700D+02 -0.181330D-01
  0.255900D+02 -0.557600D-01
  0.899700D+01 -0.126895D+00
  0.331900D+01 -0.170352D+00
  0.905900D+00  0.140382D+00
  0.364300D+00  0.598684D+00
  0.128500D+00  0.395389D+00
   s     1 1.00
  0.905900D+00  0.100000D+01
   s     1 1.00
  0.364300D+00  0.100000D+01
   p     5 1.00
  0.187100D+02  0.140310D-01
  0.413300D+01  0.868660D-01
  0.120000D+01  0.290216D+00
  0.382700D+00  0.501008D+00
  0.120900D+00  0.343406D+00
   p     1 1.00
  0.382700D+00  0.100000D+01
   p     1 1.00
  0.120900D+00  0.100000D+01
   d     1 1.00
  0.109700D+01  0.100000D+01
   d     1 1.00
  0.318000D+00  0.100000D+01
   f     1 1.00
  0.761000D+00  0.100000D+01
  
  5  0
   s    10 1.00
  0.823600D+04  0.531000D-03
  0.123500D+04  0.410800D-02
  0.280800D+03  0.210870D-01
  0.792700D+02  0.818530D-01
  0.255900D+02  0.234817D+00
  0.899700D+01  0.434401D+00
  0.331900D+01  0.346129D+00
  0.905900D+00  0.393780D-01
  0.364300D+00 -0.898300D-02
  0.128500D+00  0.238500D-02
   s    10 1.00
  0.823600D+04 -0.113000D-03
  0.123500D+04 -0.878000D-03
  0.280800D+03 -0.454000D-02
  0.792700D+02 -0.181330D-01
  0.255900D+02 -0.557600D-01
  0.899700D+01 -0.126895D+00
  0.331900D+01 -0.170352D+00
  0.905900D+00  0.140382D+00
  0.364300D+00  0.598684D+00
  0.128500D+00  0.395389D+00
   s     1 1.00
  0.905900D+00  0.100000D+01
   s     1 1.00
  0.364300D+00  0.100000D+01
   p     5 1.00
  0.187100D+02  0.140310D-01
  0.413300D+01  0.868660D-01
  0.120000D+01  0.290216D+00
  0.382700D+00  0.501008D+00
  0.120900D+00  0.343406D+00
   p     1 1.00
  0.382700D+00  0.100000D+01
   p     1 1.00
  0.120900D+00  0.100000D+01
   d     1 1.00
  0.109700D+01  0.100000D+01
   d     1 1.00
  0.318000D+00  0.100000D+01
   f     1 1.00
  0.761000D+00  0.100000D+01
  
  6  0
   s    10 1.00
  0.823600D+04  0.531000D-03
  0.123500D+04  0.410800D-02
  0.280800D+03  0.210870D-01
  0.792700D+02  0.818530D-01
  0.255900D+02  0.234817D+00
  0.899700D+01  0.434401D+00
  0.331900D+01  0.346129D+00
  0.905900D+00  0.393780D-01
  0.364300D+00 -0.898300D-02
  0.128500D+00  0.238500D-02
   s    10 1.00
  0.823600D+04 -0.113000D-03
  0.123500D+04 -0.878000D-03
  0.280800D+03 -0.454000D-02
  0.792700D+02 -0.181330D-01
  0.255900D+02 -0.557600D-01
  0.899700D+01 -0.126895D+00
  0.331900D+01 -0.170352D+00
  0.905900D+00  0.140382D+00
  0.364300D+00  0.598684D+00
  0.128500D+00  0.395389D+00
   s     1 1.00
  0.905900D+00  0.100000D+01
   s     1 1.00
  0.364300D+00  0.100000D+01
   p     5 1.00
  0.187100D+02  0.140310D-01
  0.413300D+01  0.868660D-01
  0.120000D+01  0.290216D+00
  0.382700D+00  0.501008D+00
  0.120900D+00  0.343406D+00
   p     1 1.00
  0.382700D+00  0.100000D+01
   p     1 1.00
  0.120900D+00  0.100000D+01
   d     1 1.00
  0.109700D+01  0.100000D+01
   d     1 1.00
  0.318000D+00  0.100000D+01
   f     1 1.00
  0.761000D+00  0.100000D+01
  
  7  0
   s    10 1.00
  0.823600D+04  0.531000D-03
  0.123500D+04  0.410800D-02
  0.280800D+03  0.210870D-01
  0.792700D+02  0.818530D-01
  0.255900D+02  0.234817D+00
  0.899700D+01  0.434401D+00
  0.331900D+01  0.346129D+00
  0.905900D+00  0.393780D-01
  0.364300D+00 -0.898300D-02
  0.128500D+00  0.238500D-02
   s    10 1.00
  0.823600D+04 -0.113000D-03
  0.123500D+04 -0.878000D-03
  0.280800D+03 -0.454000D-02
  0.792700D+02 -0.181330D-01
  0.255900D+02 -0.557600D-01
  0.899700D+01 -0.126895D+00
  0.331900D+01 -0.170352D+00
  0.905900D+00  0.140382D+00
  0.364300D+00  0.598684D+00
  0.128500D+00  0.395389D+00
   s     1 1.00
  0.905900D+00  0.100000D+01
   s     1 1.00
  0.364300D+00  0.100000D+01
   p     5 1.00
  0.187100D+02  0.140310D-01
  0.413300D+01  0.868660D-01
  0.120000D+01  0.290216D+00
  0.382700D+00  0.501008D+00
  0.120900D+00  0.343406D+00
   p     1 1.00
  0.382700D+00  0.100000D+01
   p     1 1.00
  0.120900D+00  0.100000D+01
   d     1 1.00
  0.109700D+01  0.100000D+01
   d     1 1.00
  0.318000D+00  0.100000D+01
   f     1 1.00
  0.761000D+00  0.100000D+01
  
  8  0
   s     4 1.00
  0.130100D+02  0.196850D-01
  0.196200D+01  0.137977D+00
  0.444600D+00  0.478148D+00
  0.122000D+00  0.501240D+00
   s     1 1.00
  0.122000D+00  0.100000D+01
   p     1 1.00
  0.727000D+00  0.100000D+01
  
  9  0
   s     4 1.00
  0.130100D+02  0.196850D-01
  0.196200D+01  0.137977D+00
  0.444600D+00  0.478148D+00
  0.122000D+00  0.501240D+00
   s     1 1.00
  0.122000D+00  0.100000D+01
   p     1 1.00
  0.727000D+00  0.100000D+01
  
 10  0
   s     4 1.00
  0.130100D+02  0.196850D-01
  0.196200D+01  0.137977D+00
  0.444600D+00  0.478148D+00
  0.122000D+00  0.501240D+00
   s     1 1.00
  0.122000D+00  0.100000D+01
   p     1 1.00
  0.727000D+00  0.100000D+01
  
 11  0
   s     4 1.00
  0.130100D+02  0.196850D-01
  0.196200D+01  0.137977D+00
  0.444600D+00  0.478148D+00
  0.122000D+00  0.501240D+00
   s     1 1.00
  0.122000D+00  0.100000D+01
   p     1 1.00
  0.727000D+00  0.100000D+01
  
 12  0
   s     4 1.00
  0.130100D+02  0.196850D-01
  0.196200D+01  0.137977D+00
  0.444600D+00  0.478148D+00
  0.122000D+00  0.501240D+00
   s     1 1.00
  0.122000D+00  0.100000D+01
   p     1 1.00
  0.727000D+00  0.100000D+01
  
 13  0
   s     4 1.00
  0.130100D+02  0.196850D-01
  0.196200D+01  0.137977D+00
  0.444600D+00  0.478148D+00
  0.122000D+00  0.501240D+00
   s     1 1.00
  0.122000D+00  0.100000D+01
   p     1 1.00
  0.727000D+00  0.100000D+01
  
 14  0
   s     4 1.00
  0.130100D+02  0.196850D-01
  0.196200D+01  0.137977D+00
  0.444600D+00  0.478148D+00
  0.122000D+00  0.501240D+00
   s     1 1.00
  0.122000D+00  0.100000D+01
   p     1 1.00
  0.727000D+00  0.100000D+01
  
[MO]
 Sym= __1_a__
 Ene=  0.000000000000000E+000
 Spin= Alpha
 Occup=    2.00000000000000     
                     1 -3.683596904351920E-004
                     2  0.998216925245646     
                     3 -2.946192569074840E-002
                     4  1.403043752845600E-003
                     5  4.973548551164750E-003
                     6  1.225792572602190E-002
                     7 -1.821530816071800E-003
                     8  2.193255948647870E-002
                     9 -1.480507932412200E-003
                    10  1.210512516949800E-004
                    11 -1.687395667524180E-003
                    12 -3.788934204798310E-003
                    13  3.552802640627810E-004
                    14 -5.623731387576640E-003
                    15  1.153799894035033E-004
                    16  3.969579784976260E-005
                    17 -1.978692786135890E-005
                    18  6.316709990827660E-005
                    19  1.569515331322610E-006
                    20  4.524764286694474E-004
                    21  8.174259231000820E-004
                    22 -6.996224297917390E-005
                    23  1.941432386202992E-004
                    24 -4.910560727079590E-005
                    25  4.559667081972949E-005
                    26 -4.934576260155663E-005
                    27  6.890360137945890E-006
                    28  4.730907174623740E-005
                    29  1.985283151563620E-005
                    30  1.455994819257491E-005
                    31 -3.435329934415327E-006
                    32 -3.563963124103210E-004
                    33  6.315745154411270E-004
                    34  2.593523749162540E-004
                    35  1.267009950831120E-004
                    36  1.149168600091460E-003
                    37  2.929372830950180E-004
                    38 -1.417648074348010E-003
                    39 -5.240544644415200E-004
                    40 -1.112920664931950E-004
                    41  7.479921005130820E-004
                    42  3.458138503241860E-003
                    43  3.161669218621070E-004
                    44 -2.001383196229580E-003
                    45  4.370567260957606E-005
                    46 -2.890361479254550E-004
                    47 -1.549138037284630E-005
                    48 -4.641679376562240E-005
                    49  2.817166344136650E-005
                    50  1.545021014483903E-004
                    51  2.662039679331690E-004
                    52  7.361471944854500E-006
                    53 -1.174432785986712E-004
                    54 -4.048201102839510E-005
                    55  9.943058373896540E-005
                    56 -9.317844189366302E-006
                    57  8.947589216231635E-006
                    58  1.105681744933392E-004
                    59  5.268408988775391E-007
                    60 -6.517427222076285E-005
                    61 -8.800340041613860E-006
                    62 -8.651476377221590E-004
                    63 -3.558211145390300E-005
                    64 -1.746242896323880E-004
                    65  3.207898662657360E-003
                    66 -3.630325707882170E-003
                    67 -1.937050903071330E-004
                    68  1.095498747693410E-003
                    69  7.555917320092360E-004
                    70 -4.662626618458980E-005
                    71  6.784071923596581E-004
                    72  1.581356319282480E-003
                    73  3.171729436506530E-004
                    74 -2.363205337264730E-003
                    75  1.080410758238656E-004
                    76 -9.391400797032290E-005
                    77 -2.758523879465610E-005
                    78  2.963769460193760E-005
                    79  1.212810327031780E-005
                    80  2.710765294622275E-004
                    81 -2.568181079155190E-004
                    82 -5.612564166309480E-005
                    83 -2.120772234772040E-005
                    84  2.704396448780560E-005
                    85 -3.008321450783802E-005
                    86 -1.837550828904934E-004
                    87 -1.573173253524793E-005
                    88  8.518623733826480E-006
                    89  2.264357231155410E-005
                    90 -7.368339706948452E-005
                    91  5.758381850886233E-006
                    92  2.969421937371190E-005
                    93 -5.902351086741621E-004
                    94  3.159571610409530E-004
                    95 -1.272437253674020E-003
                    96 -3.123736766599130E-004
                    97 -1.306642994625870E-004
                    98  1.023914033033610E-003
                    99  1.123739055613160E-004
                   100 -5.052288761303420E-005
                   101  3.328940625351110E-004
                   102 -1.737027500845780E-003
                   103 -1.087256637322230E-005
                   104 -2.680662038615480E-004
                   105 -3.460447631610255E-005
                   106 -2.377044948957320E-005
                   107  2.035699009042970E-006
                   108  3.274638178654380E-005
                   109  4.134520013284520E-006
                   110 -8.891807571444543E-005
                   111  2.372208309452190E-004
                   112  4.329199963220540E-005
                   113 -1.210596237309966E-004
                   114 -3.535164044222260E-005
                   115 -3.139212852441988E-005
                   116  3.070500633404092E-005
                   117 -7.667592645523080E-006
                   118 -9.492283653333381E-006
                   119 -5.795382971496700E-006
                   120  1.113792539578728E-005
                   121  2.331342889021488E-007
                   122 -3.087617515676080E-004
                   123 -2.010003435434430E-003
                   124  1.659795994115650E-004
                   125  6.708179465527740E-004
                   126  1.741477739740660E-003
                   127  9.504905499227919E-005
                   128 -1.943696852461360E-004
                   129  4.654492227077370E-004
                   130 -3.091503232689270E-005
                   131  3.589536619335770E-004
                   132  1.433584903905940E-003
                   133 -5.150227214243950E-005
                   134  8.528483440003690E-004
                   135  7.423270564727002E-005
                   136 -2.907781744157680E-005
                   137 -8.531686523228350E-006
                   138 -6.640982668565239E-005
                   139 -9.450150532381120E-007
                   140  2.402392091780735E-004
                   141  1.522935070036510E-004
                   142 -2.444054109030890E-006
                   143 -3.681717840297640E-004
                   144 -4.256718495219750E-005
                   145 -1.444405815760718E-005
                   146 -4.556599187015900E-005
                   147 -7.918371107304952E-006
                   148  1.139479744181216E-005
                   149 -5.042093923254760E-006
                   150 -9.585953790963429E-005
                   151  6.737587033943541E-006
                   152 -1.374723339973300E-004
                   153 -3.640003598157080E-004
                   154 -6.241589920610951E-005
                   155  6.841159913599030E-004
                   156  4.241387917792090E-004
                   157 -2.914299346439850E-005
                   158  6.165918622739120E-005
                   159 -3.247810610447510E-004
                   160 -1.226157839691100E-005
                   161  3.915680399487990E-005
                   162 -5.724982577703590E-004
                   163 -1.415558909574060E-004
                   164  9.727786359586470E-004
                   165 -4.938889562367449E-006
                   166 -1.304236217690660E-005
                   167 -9.899078557897471E-007
                   168  1.636386920877940E-005
                   169  1.823806915808970E-006
                   170 -5.456249871998646E-005
                   171  7.229436443020590E-005
                   172  2.038663208378880E-005
                   173 -5.527608975917180E-005
                   174 -1.011596815847170E-005
                   175 -5.886912181882709E-006
                   176 -1.505148942194799E-005
                   177 -1.103221589707578E-006
                   178 -7.446533590242040E-006
                   179  2.890248040260520E-006
                   180  1.553988246125867E-006
                   181  8.575651923751528E-007
                   182 -1.296325513403910E-004
                   183 -2.230565079645970E-004
                   184  2.813835563077510E-005
                   185  2.479307001004340E-004
                   186 -2.355277768843170E-004
                   187 -1.799865894135410E-005
                   188 -7.741998600363010E-005
                   189  1.474049729818810E-004
                   190 -4.415108300830740E-005
                   191  4.036714887520750E-004
                   192 -5.042674918932120E-004
                   193 -1.721788606600320E-004
                   194  1.297628964889580E-003
                   195  2.764846802029614E-005
                   196 -9.617332648690760E-006
                   197 -5.379726440788020E-006
                   198 -1.544375304551336E-005
                   199  4.353640705027480E-007
                   200 -4.352034278531983E-005
                   201 -2.691670618432850E-004
                   202 -1.505747037312430E-006
                   203  9.686850316878739E-006
                   204  3.302423136706320E-005
                   205  1.337724324612480E-006
                   206  4.597962647578251E-006
                   207 -2.773058362728817E-006
                   208  1.578910379523480E-005
                   209 -2.833036595259880E-007
                   210 -5.140727710542768E-006
                   211 -2.014144791893645E-006
                   212 -7.905112944189070E-004
                   213  1.275899876464460E-003
                   214  1.284781653339010E-004
                   215 -2.465197177056370E-005
                   216  1.202203571181670E-004
                   217 -1.162092305254570E-003
                   218  1.319587392603050E-003
                   219  1.426463428528810E-004
                   220 -8.815939145050040E-006
                   221  1.438105474909800E-004
                   222  1.346879436838920E-003
                   223 -1.689879339239110E-003
                   224 -3.805655483209490E-005
                   225 -1.589476635017830E-005
                   226  1.384103640924980E-004
                   227  7.363477195480670E-004
                   228 -2.370715651652420E-004
                   229 -1.597229925159480E-005
                   230  1.184463205428740E-005
                   231 -1.111497212477100E-004
                   232  8.749255602985850E-004
                   233 -1.767898538037840E-004
                   234 -1.889693798182140E-006
                   235 -5.934153476389280E-006
                   236  5.068585781895450E-005
                   237  8.237895486958760E-005
                   238 -5.448184708140300E-004
                   239 -1.907682513471190E-005
                   240 -1.507915624140650E-008
                   241 -8.684931055420890E-006
                   242 -3.639531974901690E-004
                   243  2.270945742078780E-004
                   244  3.814484061343400E-005
                   245  1.010487097663680E-006
                   246 -3.391272426093170E-006
 Sym= __2_a__
 Ene=  0.000000000000000E+000
 Spin= Alpha
 Occup=    2.00000000000000     
                     1 -2.872177738348760E-005
                     2 -4.813510674128170E-005
                     3 -9.276298856801850E-006
                     4 -2.004918879522500E-005
                     5  9.358945001201860E-004
                     6  1.623415116222450E-003
                     7 -8.798809897497050E-005
                     8  9.068955331734570E-004
                     9 -1.459356000966010E-004
                    10  2.642892903268310E-006
                    11 -9.634968435331679E-005
                    12  1.357387127200030E-004
                    13  2.096254349111130E-005
                    14 -1.367329782584270E-004
                    15 -4.794882415825680E-005
                    16  2.884381268908270E-005
                    17  4.189366524906790E-006
                    18  5.466711035482180E-005
                    19 -6.352712289483720E-007
                    20  3.810033865495573E-005
                    21 -5.155325261641600E-005
                    22 -2.027187191066620E-005
                    23  1.050938610404892E-004
                    24  1.653180538867960E-005
                    25 -2.481946173755043E-005
                    26  1.233848127079349E-004
                    27  1.035510412568573E-005
                    28 -6.229100692641840E-005
                    29 -1.100179003823130E-005
                    30  1.023886754001010E-004
                    31 -7.371325944878971E-007
                    32   1.00082000296920     
                    33  8.598261154450910E-003
                    34  2.840424718014300E-003
                    35 -8.434291422230461E-003
                    36 -1.397256820172750E-003
                    37 -8.207593285544081E-005
                    38  3.028065830858120E-005
                    39  6.847131854959250E-004
                    40  8.812362873760541E-005
                    41 -3.738158467427410E-004
                    42  2.488306954449510E-003
                    43  4.046727604268680E-005
                    44  3.659340924393070E-004
                    45  3.148802620563035E-004
                    46 -6.718812737638090E-006
                    47 -1.044999099474160E-004
                    48  3.160708459515900E-004
                    49  1.702039970168920E-005
                    50 -1.012199808940632E-003
                    51 -3.655299470307170E-004
                    52  2.146709996266910E-004
                    53 -1.073389876876142E-004
                    54  3.814677892623870E-005
                    55 -2.841981805036201E-005
                    56  2.548652374559639E-004
                    57  6.287196342205176E-006
                    58 -3.131909156704600E-005
                    59 -3.890518292924860E-005
                    60  7.287501634421717E-005
                    61 -1.517979178059130E-006
                    62  1.733889408604740E-002
                    63 -1.412356981287410E-003
                    64 -2.880942868875030E-004
                    65  2.763783280718040E-003
                    66 -3.540642670274050E-004
                    67 -6.320596640874000E-005
                    68  4.292254556521050E-004
                    69  2.150608307501260E-005
                    70 -3.762542254391590E-005
                    71  3.037593366361500E-004
                    72  2.118130356402220E-004
                    73  2.184392650770350E-004
                    74 -1.778393301702840E-003
                    75  1.221028614832715E-005
                    76  2.288103738503570E-005
                    77  3.501804428942860E-006
                    78 -4.629006733008880E-005
                    79 -5.146234320755880E-006
                    80 -5.522291749784446E-004
                    81 -3.726929423206260E-004
                    82  4.448933166779230E-006
                    83  8.086762277972220E-004
                    84  9.207158974069871E-005
                    85  3.513277208093289E-005
                    86  1.085633312919126E-004
                    87  1.938761735302577E-005
                    88 -2.918912172953740E-005
                    89 -2.610750766674370E-005
                    90 -2.624090413615061E-005
                    91  6.740956483023895E-006
                    92  1.870584454287930E-002
                    93 -1.758852546458380E-003
                    94 -3.364488408461370E-004
                    95  3.383988749073640E-003
                    96 -2.253780034710550E-004
                    97  2.463329802160400E-005
                    98 -2.953345782813380E-004
                    99 -1.164866715865120E-004
                   100  9.118788047700551E-005
                   101 -8.109545165103041E-004
                   102  3.154606940249610E-004
                   103 -1.681205147680160E-004
                   104  1.476039716118490E-003
                   105  4.761793580529501E-006
                   106 -2.093208818848190E-006
                   107  1.649298245767940E-006
                   108 -2.121483178074680E-005
                   109 -8.393254359648350E-007
                   110 -1.442166594069570E-004
                   111  5.227602085652290E-004
                   112 -2.512041814881560E-005
                   113  6.094287922880100E-004
                   114 -2.604922856776500E-005
                   115 -4.338779672055828E-005
                   116  8.391984658933068E-005
                   117 -1.468145234361613E-005
                   118  1.772543993855718E-005
                   119 -1.965612905285630E-005
                   120 -2.838697413452077E-005
                   121 -3.647986315390808E-007
                   122 -1.574584339340110E-005
                   123 -7.256444574728230E-004
                   124  2.434189528670370E-004
                   125 -4.155551310675110E-004
                   126 -7.082159542923240E-005
                   127  3.320565209865640E-006
                   128 -5.467420784668000E-005
                   129  6.283097029377720E-004
                   130  1.192155867845740E-005
                   131  5.637363769577510E-005
                   132  3.154671374630450E-004
                   133 -4.105686796337450E-005
                   134  4.267594277831740E-004
                   135  2.185954782697195E-006
                   136  3.550646011425040E-005
                   137  5.298403254254630E-006
                   138 -3.972341064066940E-005
                   139 -6.603886404728800E-006
                   140  1.866129689203438E-004
                   141 -2.876646140101790E-004
                   142 -2.036151578407760E-005
                   143 -2.213019679695940E-004
                   144  2.131903040703760E-005
                   145 -9.083372050081403E-006
                   146  1.232526628664862E-005
                   147 -1.929511251240459E-006
                   148 -2.069770532418560E-006
                   149 -5.447958083378140E-006
                   150 -1.971605622373528E-005
                   151  2.138056935009884E-006
                   152  5.433015845346250E-005
                   153 -7.492127085788340E-004
                   154  2.282567994711510E-004
                   155 -1.282191700204000E-004
                   156 -1.183367759821320E-004
                   157 -1.103383208068980E-005
                   158  3.511790150727460E-005
                   159  4.773324187257950E-004
                   160  1.450551713597650E-005