[Molden Format]
[Atoms] AU
  N     1    7    -0.0053203100   -0.0001761600   -4.3354123700        
  C     2    6    -0.0032781100   -0.0017389500   -1.7650734300        
  C     3    6     0.0800983000   -2.3340525900   -0.4151384400        
  C     4    6    -0.0845070400    2.3289313600   -0.4121725400        
  C     5    6     0.1281282700   -2.2998291400    2.1719252000        
  C     6    6    -0.1284259900    2.2915619900    2.1749206300        
  C     7    6     0.0008867600   -0.0049260700    3.4768611200        
  H     8    1    -1.1433952800   -1.2200656100   -5.3453710700        
  H     9    1     1.1311495200    1.2209416000   -5.3456941100        
  H    10    1     0.1728953700   -4.0639803800   -1.4538405000        
  H    11    1    -0.1789528800    4.0601208500   -1.4486214500        
  H    12    1     0.2615856200   -4.0375621900    3.2031852000        
  H    13    1    -0.2602427600    4.0280396000    3.2085037400        
  H    14    1     0.0024978900   -0.0061589600    5.5046178400        
[5D]
[7F]
[GTO]
  1  0
   s    12 1.00
  0.114200D+05  0.172695D-04
  0.171200D+04  0.134411D-03
  0.389300D+03  0.694561D-03
  0.110000D+03  0.278531D-02
  0.355700D+02  0.863457D-02
  0.125400D+02  0.199805D-01
  0.464400D+01  0.262908D-01
  0.129300D+01 -0.243845D-01
  0.511800D+00 -0.924934D-01
  0.178700D+00 -0.339683D+00
  0.246240D-01  0.345111D+00
  0.112530D-01  0.752750D+00
   s    10 1.00
  0.114200D+05  0.523000D-03
  0.171200D+04  0.404500D-02
  0.389300D+03  0.207750D-01
  0.110000D+03  0.807269D-01
  0.355700D+02  0.233074D+00
  0.125400D+02  0.433501D+00
  0.464400D+01  0.347472D+00
  0.129300D+01  0.412620D-01
  0.511800D+00 -0.850799D-02
  0.178700D+00  0.238400D-02
   s    10 1.00
  0.114200D+05 -0.115000D-03
  0.171200D+04 -0.895000D-03
  0.389300D+03 -0.462400D-02
  0.110000D+03 -0.185280D-01
  0.355700D+02 -0.573390D-01
  0.125400D+02 -0.132076D+00
  0.464400D+01 -0.172510D+00
  0.129300D+01  0.151814D+00
  0.511800D+00  0.599944D+00
  0.178700D+00  0.387462D+00
   s     1 1.00
  0.129300D+01  0.100000D+01
   s     1 1.00
  0.178700D+00  0.100000D+01
   p     5 1.00
  0.266300D+02  0.146700D-01
  0.594800D+01  0.917640D-01
  0.174200D+01  0.298683D+00
  0.555000D+00  0.498487D+00
  0.172500D+00  0.337023D+00
   p     1 1.00
  0.174200D+01  0.100000D+01
   p     1 1.00
  0.555000D+00  0.100000D+01
   d     1 1.00
  0.165400D+01  0.100000D+01
   d     1 1.00
  0.469000D+00  0.100000D+01
   f     1 1.00
  0.109300D+01  0.100000D+01
  
  2  0
   s    10 1.00
  0.823600D+04  0.531000D-03
  0.123500D+04  0.410800D-02
  0.280800D+03  0.210870D-01
  0.792700D+02  0.818530D-01
  0.255900D+02  0.234817D+00
  0.899700D+01  0.434401D+00
  0.331900D+01  0.346129D+00
  0.905900D+00  0.393780D-01
  0.364300D+00 -0.898300D-02
  0.128500D+00  0.238500D-02
   s    10 1.00
  0.823600D+04 -0.113000D-03
  0.123500D+04 -0.878000D-03
  0.280800D+03 -0.454000D-02
  0.792700D+02 -0.181330D-01
  0.255900D+02 -0.557600D-01
  0.899700D+01 -0.126895D+00
  0.331900D+01 -0.170352D+00
  0.905900D+00  0.140382D+00
  0.364300D+00  0.598684D+00
  0.128500D+00  0.395389D+00
   s     1 1.00
  0.905900D+00  0.100000D+01
   s     1 1.00
  0.364300D+00  0.100000D+01
   p     5 1.00
  0.187100D+02  0.140310D-01
  0.413300D+01  0.868660D-01
  0.120000D+01  0.290216D+00
  0.382700D+00  0.501008D+00
  0.120900D+00  0.343406D+00
   p     1 1.00
  0.382700D+00  0.100000D+01
   p     1 1.00
  0.120900D+00  0.100000D+01
   d     1 1.00
  0.109700D+01  0.100000D+01
   d     1 1.00
  0.318000D+00  0.100000D+01
   f     1 1.00
  0.761000D+00  0.100000D+01
  
  3  0
   s    10 1.00
  0.823600D+04  0.531000D-03
  0.123500D+04  0.410800D-02
  0.280800D+03  0.210870D-01
  0.792700D+02  0.818530D-01
  0.255900D+02  0.234817D+00
  0.899700D+01  0.434401D+00
  0.331900D+01  0.346129D+00
  0.905900D+00  0.393780D-01
  0.364300D+00 -0.898300D-02
  0.128500D+00  0.238500D-02
   s    10 1.00
  0.823600D+04 -0.113000D-03
  0.123500D+04 -0.878000D-03
  0.280800D+03 -0.454000D-02
  0.792700D+02 -0.181330D-01
  0.255900D+02 -0.557600D-01
  0.899700D+01 -0.126895D+00
  0.331900D+01 -0.170352D+00
  0.905900D+00  0.140382D+00
  0.364300D+00  0.598684D+00
  0.128500D+00  0.395389D+00
   s     1 1.00
  0.905900D+00  0.100000D+01
   s     1 1.00
  0.364300D+00  0.100000D+01
   p     5 1.00
  0.187100D+02  0.140310D-01
  0.413300D+01  0.868660D-01
  0.120000D+01  0.290216D+00
  0.382700D+00  0.501008D+00
  0.120900D+00  0.343406D+00
   p     1 1.00
  0.382700D+00  0.100000D+01
   p     1 1.00
  0.120900D+00  0.100000D+01
   d     1 1.00
  0.109700D+01  0.100000D+01
   d     1 1.00
  0.318000D+00  0.100000D+01
   f     1 1.00
  0.761000D+00  0.100000D+01
  
  4  0
   s    10 1.00
  0.823600D+04  0.531000D-03
  0.123500D+04  0.410800D-02
  0.280800D+03  0.210870D-01
  0.792700D+02  0.818530D-01
  0.255900D+02  0.234817D+00
  0.899700D+01  0.434401D+00
  0.331900D+01  0.346129D+00
  0.905900D+00  0.393780D-01
  0.364300D+00 -0.898300D-02
  0.128500D+00  0.238500D-02
   s    10 1.00
  0.823600D+04 -0.113000D-03
  0.123500D+04 -0.878000D-03
  0.280800D+03 -0.454000D-02
  0.792700D+02 -0.181330D-01
  0.255900D+02 -0.557600D-01
  0.899700D+01 -0.126895D+00
  0.331900D+01 -0.170352D+00
  0.905900D+00  0.140382D+00
  0.364300D+00  0.598684D+00
  0.128500D+00  0.395389D+00
   s     1 1.00
  0.905900D+00  0.100000D+01
   s     1 1.00
  0.364300D+00  0.100000D+01
   p     5 1.00
  0.187100D+02  0.140310D-01
  0.413300D+01  0.868660D-01
  0.120000D+01  0.290216D+00
  0.382700D+00  0.501008D+00
  0.120900D+00  0.343406D+00
   p     1 1.00
  0.382700D+00  0.100000D+01
   p     1 1.00
  0.120900D+00  0.100000D+01
   d     1 1.00
  0.109700D+01  0.100000D+01
   d     1 1.00
  0.318000D+00  0.100000D+01
   f     1 1.00
  0.761000D+00  0.100000D+01
  
  5  0
   s    10 1.00
  0.823600D+04  0.531000D-03
  0.123500D+04  0.410800D-02
  0.280800D+03  0.210870D-01
  0.792700D+02  0.818530D-01
  0.255900D+02  0.234817D+00
  0.899700D+01  0.434401D+00
  0.331900D+01  0.346129D+00
  0.905900D+00  0.393780D-01
  0.364300D+00 -0.898300D-02
  0.128500D+00  0.238500D-02
   s    10 1.00
  0.823600D+04 -0.113000D-03
  0.123500D+04 -0.878000D-03
  0.280800D+03 -0.454000D-02
  0.792700D+02 -0.181330D-01
  0.255900D+02 -0.557600D-01
  0.899700D+01 -0.126895D+00
  0.331900D+01 -0.170352D+00
  0.905900D+00  0.140382D+00
  0.364300D+00  0.598684D+00
  0.128500D+00  0.395389D+00
   s     1 1.00
  0.905900D+00  0.100000D+01
   s     1 1.00
  0.364300D+00  0.100000D+01
   p     5 1.00
  0.187100D+02  0.140310D-01
  0.413300D+01  0.868660D-01
  0.120000D+01  0.290216D+00
  0.382700D+00  0.501008D+00
  0.120900D+00  0.343406D+00
   p     1 1.00
  0.382700D+00  0.100000D+01
   p     1 1.00
  0.120900D+00  0.100000D+01
   d     1 1.00
  0.109700D+01  0.100000D+01
   d     1 1.00
  0.318000D+00  0.100000D+01
   f     1 1.00
  0.761000D+00  0.100000D+01
  
  6  0
   s    10 1.00
  0.823600D+04  0.531000D-03
  0.123500D+04  0.410800D-02
  0.280800D+03  0.210870D-01
  0.792700D+02  0.818530D-01
  0.255900D+02  0.234817D+00
  0.899700D+01  0.434401D+00
  0.331900D+01  0.346129D+00
  0.905900D+00  0.393780D-01
  0.364300D+00 -0.898300D-02
  0.128500D+00  0.238500D-02
   s    10 1.00
  0.823600D+04 -0.113000D-03
  0.123500D+04 -0.878000D-03
  0.280800D+03 -0.454000D-02
  0.792700D+02 -0.181330D-01
  0.255900D+02 -0.557600D-01
  0.899700D+01 -0.126895D+00
  0.331900D+01 -0.170352D+00
  0.905900D+00  0.140382D+00
  0.364300D+00  0.598684D+00
  0.128500D+00  0.395389D+00
   s     1 1.00
  0.905900D+00  0.100000D+01
   s     1 1.00
  0.364300D+00  0.100000D+01
   p     5 1.00
  0.187100D+02  0.140310D-01
  0.413300D+01  0.868660D-01
  0.120000D+01  0.290216D+00
  0.382700D+00  0.501008D+00
  0.120900D+00  0.343406D+00
   p     1 1.00
  0.382700D+00  0.100000D+01
   p     1 1.00
  0.120900D+00  0.100000D+01
   d     1 1.00
  0.109700D+01  0.100000D+01
   d     1 1.00
  0.318000D+00  0.100000D+01
   f     1 1.00
  0.761000D+00  0.100000D+01
  
  7  0
   s    10 1.00
  0.823600D+04  0.531000D-03
  0.123500D+04  0.410800D-02
  0.280800D+03  0.210870D-01
  0.792700D+02  0.818530D-01
  0.255900D+02  0.234817D+00
  0.899700D+01  0.434401D+00
  0.331900D+01  0.346129D+00
  0.905900D+00  0.393780D-01
  0.364300D+00 -0.898300D-02
  0.128500D+00  0.238500D-02
   s    10 1.00
  0.823600D+04 -0.113000D-03
  0.123500D+04 -0.878000D-03
  0.280800D+03 -0.454000D-02
  0.792700D+02 -0.181330D-01
  0.255900D+02 -0.557600D-01
  0.899700D+01 -0.126895D+00
  0.331900D+01 -0.170352D+00
  0.905900D+00  0.140382D+00
  0.364300D+00  0.598684D+00
  0.128500D+00  0.395389D+00
   s     1 1.00
  0.905900D+00  0.100000D+01
   s     1 1.00
  0.364300D+00  0.100000D+01
   p     5 1.00
  0.187100D+02  0.140310D-01
  0.413300D+01  0.868660D-01
  0.120000D+01  0.290216D+00
  0.382700D+00  0.501008D+00
  0.120900D+00  0.343406D+00
   p     1 1.00
  0.382700D+00  0.100000D+01
   p     1 1.00
  0.120900D+00  0.100000D+01
   d     1 1.00
  0.109700D+01  0.100000D+01
   d     1 1.00
  0.318000D+00  0.100000D+01
   f     1 1.00
  0.761000D+00  0.100000D+01
  
  8  0
   s     4 1.00
  0.130100D+02  0.196850D-01
  0.196200D+01  0.137977D+00
  0.444600D+00  0.478148D+00
  0.122000D+00  0.501240D+00
   s     1 1.00
  0.122000D+00  0.100000D+01
   p     1 1.00
  0.727000D+00  0.100000D+01
  
  9  0
   s     4 1.00
  0.130100D+02  0.196850D-01
  0.196200D+01  0.137977D+00
  0.444600D+00  0.478148D+00
  0.122000D+00  0.501240D+00
   s     1 1.00
  0.122000D+00  0.100000D+01
   p     1 1.00
  0.727000D+00  0.100000D+01
  
 10  0
   s     4 1.00
  0.130100D+02  0.196850D-01
  0.196200D+01  0.137977D+00
  0.444600D+00  0.478148D+00
  0.122000D+00  0.501240D+00
   s     1 1.00
  0.122000D+00  0.100000D+01
   p     1 1.00
  0.727000D+00  0.100000D+01
  
 11  0
   s     4 1.00
  0.130100D+02  0.196850D-01
  0.196200D+01  0.137977D+00
  0.444600D+00  0.478148D+00
  0.122000D+00  0.501240D+00
   s     1 1.00
  0.122000D+00  0.100000D+01
   p     1 1.00
  0.727000D+00  0.100000D+01
  
 12  0
   s     4 1.00
  0.130100D+02  0.196850D-01
  0.196200D+01  0.137977D+00
  0.444600D+00  0.478148D+00
  0.122000D+00  0.501240D+00
   s     1 1.00
  0.122000D+00  0.100000D+01
   p     1 1.00
  0.727000D+00  0.100000D+01
  
 13  0
   s     4 1.00
  0.130100D+02  0.196850D-01
  0.196200D+01  0.137977D+00
  0.444600D+00  0.478148D+00
  0.122000D+00  0.501240D+00
   s     1 1.00
  0.122000D+00  0.100000D+01
   p     1 1.00
  0.727000D+00  0.100000D+01
  
 14  0
   s     4 1.00
  0.130100D+02  0.196850D-01
  0.196200D+01  0.137977D+00
  0.444600D+00  0.478148D+00
  0.122000D+00  0.501240D+00
   s     1 1.00
  0.122000D+00  0.100000D+01
   p     1 1.00
  0.727000D+00  0.100000D+01
  
[MO]
 Sym= __1_A__
 Ene=  0.000000000000000E+000
 Spin= Alpha
 Occup=    2.00000000000000     
                     1  5.027093828824835E-005
                     2  0.997918277670203     
                     3  1.039338523290340E-002
                     4  2.111273365299588E-003
                     5  1.429746362049078E-003
                     6  3.368590178573868E-006
                     7 -2.581921216944521E-006
                     8  4.228372630690157E-003
                     9 -1.720118825535921E-007
                    10  1.382413439455540E-007
                    11 -2.108946688231170E-004
                    12 -3.123110350805153E-007
                    13  2.071879632871462E-007
                    14 -3.901764667122649E-004
                    15  2.112910469200379E-004
                    16  3.698550880530670E-007
                    17 -2.792478615562267E-007
                    18 -2.745476727530270E-005
                    19  9.291909415923904E-005
                    20  1.200583563861847E-004
                    21 -2.082559726199234E-007
                    22  2.054738362493445E-007
                    23  7.551789101313310E-005
                    24 -5.068046459278956E-004
                    25 -1.854951465156233E-004
                    26  2.558753713993327E-007
                    27 -2.324243120944971E-007
                    28  3.555105477961984E-005
                    29 -6.248238510354003E-005
                    30  1.262383352299302E-008
                    31 -8.797848004219136E-008
                    32 -2.631436303587802E-004
                    33  2.898462614194524E-003
                    34  1.354722282806874E-004
                    35 -4.717964418395049E-004
                    36 -5.543630741910510E-006
                    37  4.257257498899698E-006
                    38 -6.971296608992615E-003
                    39  8.659526885552034E-008
                    40 -1.136672699415048E-007
                    41  9.881112698150082E-005
                    42  3.351170022488139E-006
                    43 -2.524309307733801E-006
                    44  4.226999012126047E-003
                    45  3.654227385228342E-004
                    46  4.044377431408600E-007
                    47 -4.338425763921759E-007
                    48  1.140059506005962E-004
                    49 -1.320622948364795E-005
                    50  4.099547960266404E-004
                    51  7.459418413232540E-007
                    52 -5.839404094044252E-007
                    53 -1.388189376753078E-004
                    54  1.171486686920312E-004
                    55 -8.192899339321002E-005
                    56  6.764834072591184E-008
                    57 -1.497107482211004E-007
                    58  5.604195337087770E-005
                    59 -2.316256024462766E-005
                    60 -3.746342758647890E-008
                    61 -6.813536562431059E-008
                    62 -2.048169831220795E-004
                    63 -1.708921163488885E-003
                    64  2.136640521881774E-005
                    65  7.281271079856335E-004
                    66 -1.662310396352517E-005
                    67 -8.779332300543256E-004
                    68  1.107255994439769E-003
                    69  5.693813977036245E-005
                    70  4.856022729882918E-005
                    71  3.526392411892344E-004
                    72  4.428999767595958E-005
                    73 -6.732434021887938E-004
                    74 -2.312190128404727E-004
                    75  9.098556164312029E-005
                    76  2.765027469035751E-006
                    77 -1.189482565757707E-005
                    78  3.570904820457186E-005
                    79  5.904670651891309E-008
                    80  3.673050288854631E-005
                    81 -3.109872940942067E-005
                    82  8.315136369159889E-005
                    83  4.466931392910332E-006
                    84  3.523903974706806E-005
                    85 -8.259945045092472E-005
                    86  5.850793760081343E-006
                    87 -1.264689826513935E-005
                    88  2.106886328971146E-005
                    89 -7.082701890765969E-006
                    90  2.197864757725414E-006
                    91  1.995738840041432E-005
                    92 -2.047798301653041E-004
                    93 -1.708772289353600E-003
                    94  2.153430984802808E-005
                    95  7.275848938405634E-004
                    96  1.838089539843523E-005
                    97  8.766058775390631E-004
                    98  1.108407124286188E-003
                    99 -5.636367082184197E-005
                   100 -4.913167698598360E-005
                   101  3.520364713684232E-004
                   102 -4.462333907247365E-005
                   103  6.729413630223872E-004
                   104 -2.301620110907278E-004
                   105  9.098506152722804E-005
                   106 -2.570798798697337E-006
                   107  1.167689855234417E-005
                   108  3.572105405090464E-005
                   109  8.069453153766805E-008
                   110  3.602022598997243E-005
                   111  3.124778277645388E-005
                   112 -8.339822542234907E-005
                   113  4.324903636473692E-006
                   114  3.506466909009917E-005
                   115 -8.258952030968364E-005
                   116 -5.593814662697487E-006
                   117  1.238064182045165E-005
                   118  2.104006521192898E-005
                   119 -7.005495944853814E-006
                   120 -2.228713413658880E-006
                   121 -2.000140476151145E-005
                   122 -1.565526317895498E-004
                   123 -5.860077798390664E-006
                   124  9.459604789825509E-005
                   125  2.029562064575802E-004
                   126 -4.834255132779085E-005
                   127  4.687385277281629E-005
                   128 -8.169322351279608E-004
                   129 -1.240751022470853E-006
                   130  2.256614524030431E-005
                   131  2.762741747598438E-004
                   132  1.957591862648614E-005
                   133 -8.216666077187482E-005
                   134  6.511953674867701E-004
                   135 -8.533015781483157E-006
                   136  2.228962051733439E-006
                   137  4.394294117310518E-006
                   138 -4.614035768398910E-007
                   139  1.806725982221011E-006
                   140 -1.600434368186459E-004
                   141 -1.770513017544219E-005
                   142  1.295474590274075E-004
                   143  2.468975013856598E-005
                   144 -8.776685017101401E-006
                   145 -3.116583050922701E-005
                   146 -1.617759066625628E-007
                   147 -3.261417471680090E-006
                   148 -8.653720106581168E-006
                   149 -1.661047998129226E-006
                   150 -8.538194194126030E-007
                   151 -2.666749422547645E-006
                   152 -1.570408232070441E-004
                   153 -7.588221731160258E-006
                   154  9.409680716102286E-005
                   155  2.060749584915755E-004
                   156  4.703424555420962E-005
                   157 -4.581961667129941E-005
                   158 -8.170336481146905E-004
                   159  1.720492469194267E-006
                   160 -2.328538967979451E-005
                   161  2.758959550291016E-004
                   162 -1.857914636498856E-005
                   163  8.192436784847127E-005
                   164  6.515033690401488E-004
                   165 -8.481196494459723E-006
                   166 -2.251314365080349E-006
                   167 -4.387390343177788E-006
                   168 -5.240525988397780E-007
                   169  1.795398820609452E-006
                   170 -1.602345596545299E-004
                   171  1.722003432282204E-005
                   172 -1.294918337805145E-004
                   173  2.450831341544326E-005
                   174 -9.005575749775663E-006
                   175 -3.108443460205252E-005
                   176  3.048641410420192E-007
                   177  3.196325724194223E-006
                   178 -8.694913576557447E-006
                   179 -1.663680412568647E-006
                   180  8.738696928733449E-007
                   181  2.686622357962050E-006
                   182 -1.328411131361643E-004
                   183 -3.597567977884268E-004
                   184  2.903939410493267E-005
                   185  2.101190514876904E-004
                   186 -4.444592877796766E-008
                   187  1.191325496428863E-007
                   188 -4.521248885699990E-005
                   189  4.196807261234341E-008
                   190 -4.680630872462835E-007
                   191  1.380921789558846E-005
                   192 -7.917589498718122E-009
                   193 -3.533458479158520E-008
                   194 -1.628162151097530E-005
                   195  1.918861739683747E-005
                   196  1.920466051759248E-008
                   197 -8.662293187725684E-010
                   198  7.887998205248347E-006
                   199  1.313273475011673E-006
                   200  4.696972739453519E-005
                   201  2.388220402080243E-008
                   202  1.578763818652974E-007
                   203  3.339863794537410E-005
                   204 -4.374669568591230E-006
                   205 -1.152891772589326E-005
                   206  2.119214394533061E-008
                   207 -3.062072007140931E-008
                   208  3.113658750237332E-006
                   209  2.077530071631502E-006
                   210  1.601856036085307E-010
                   211  2.835548682159725E-008
                   212  4.549063341211224E-003
                   213 -2.633396740317190E-003
                   214  3.697463729631192E-004
                   215  3.717898224571168E-004
                   216  3.870850346576032E-004
                   217  4.549032452804039E-003
                   218 -2.633384979708890E-003
                   219 -3.691285837329046E-004
                   220 -3.722598631790448E-004
                   221  3.872188005089599E-004
                   222 -6.527426157422782E-004
                   223 -2.190475586868198E-004
                   224  3.332017209990037E-006
                   225 -2.965445117159927E-005
                   226 -4.277180070218332E-005
                   227 -6.528111895073876E-004
                   228 -2.186676288386399E-004
                   229 -3.399692908050299E-006
                   230  2.968780630377775E-005
                   231 -4.275750712889459E-005
                   232 -2.509623370684810E-004
                   233 -3.256471308229537E-004
                   234 -2.830473530749435E-006
                   235 -1.074594919349262E-005
                   236  2.165252787626902E-006
                   237 -2.510054558296607E-004
                   238 -3.258056599649340E-004
                   239  2.830109866160971E-006
                   240  1.079071900587754E-005
                   241  2.223322379921438E-006
                   242  8.260368815217428E-005
                   243 -7.192703200645970E-005
                   244  1.264972273546541E-008
                   245 -3.192785645271836E-008
                   246  1.528644356761134E-005
 Sym= __2_A__
 Ene=  0.000000000000000E+000
 Spin= Alpha
 Occup=    2.00000000000000     
                     1 -2.739445573783145E-005
                     2 -1.309795410359664E-004
                     3  2.027719101698697E-003
                     4  6.898225835813222E-005
                     5  1.223886647352538E-003
                     6  1.960873059952945E-006
                     7 -1.503405396571953E-006
                     8  2.475885875397406E-003
                     9 -6.321726506488934E-008
                    10  4.815277492973469E-008
                    11 -8.306110255259905E-005
                    12 -1.796286185502304E-007
                    13  1.455141663851331E-007
                    14 -2.306853209499500E-004
                    15  4.869185767115184E-005
                    16  2.388519353087953E-008
                    17 -4.566769808426564E-008
                    18  3.077018981162674E-005
                    19 -3.009951078747613E-005
                    20 -1.764266641949381E-004
                    21 -5.176841700841026E-008
                    22  1.504206244694497E-007
                    23 -1.282170954728189E-004
                    24  1.440024743347557E-004
                    25  1.943755924852341E-004
                    26 -3.652476367379877E-007
                    27  3.626816055811200E-007
                    28 -3.440689296633564E-005
                    29 -3.229997468540249E-005
                    30  5.746793696795138E-008
                    31 -5.187760984486189E-009
                    32   1.00106584503160     
                    33  9.004448188067995E-003
                    34  2.574798850835302E-003
                    35 -7.808882131396833E-003
                    36 -2.842203054756126E-006
                    37  2.169147462144236E-006
                    38 -3.577216644475808E-003
                    39  9.397237621932313E-007
                    40 -7.154870989665494E-007
                    41  1.183665588555903E-003
                    42  3.180825447547802E-006
                    43 -2.498395323095764E-006
                    44  3.996150963524206E-003
                    45  3.711801262753516E-004
                    46  8.385641220993698E-007
                    47 -1.606768611131607E-007
                    48 -4.017197218912176E-004
                    49  1.407352049498445E-005
                    50  4.055109059592711E-004
                    51 -9.559473439901604E-008
                    52 -9.131394420895569E-007
                    53  8.234352093563948E-004
                    54 -4.520571530804637E-007
                    55  3.327482275740247E-004
                    56 -4.047271891294564E-007
                    57  6.580531953053045E-007
                    58 -1.846700021508483E-004
                    59  1.186073110940256E-005
                    60  1.710400584125041E-007
                    61  1.508357303300487E-007
                    62  9.217260316283633E-003
                    63 -1.904354798478025E-003
                    64 -2.709278811536342E-004
                    65  2.924226219787059E-003
                    66  1.518996581295542E-006
                    67  1.742884927737249E-004
                    68 -8.312169244124103E-005
                    69 -3.909060939542027E-005
                    70  5.370132995255186E-004
                    71  9.043367256938545E-005
                    72  9.117021779518430E-005
                    73 -1.925694230595660E-003
                    74  1.153334107803109E-004
                    75 -2.063602808098839E-005
                    76  1.898163595490287E-006
                    77  1.711488658347552E-005
                    78  2.734894870877602E-005
                    79  2.695386167512914E-006
                    80  7.563645902298988E-004
                    81  3.587559578174575E-005
                    82 -4.202627904748941E-004
                    83 -2.244169435144224E-005
                    84 -2.028835987551756E-005
                    85  6.020468915735351E-005
                    86 -1.380474195966187E-006
                    87  3.416500229639814E-005
                    88 -1.171597062729409E-004
                    89 -1.262512915882264E-006
                    90  4.838181107352584E-006
                    91  4.950444955352968E-005
                    92  9.217234018920811E-003
                    93 -1.904436872909677E-003
                    94 -2.709741317170937E-004
                    95  2.924429659205007E-003
                    96 -1.650424251165811E-006
                    97 -1.741887883457296E-004
                    98 -8.335742504053839E-005
                    99  3.923107038759771E-005
                   100 -5.371167409274979E-004
                   101  8.986377836443113E-005
                   102 -9.099440515232768E-005
                   103  1.925693641045960E-003
                   104  1.176639310271108E-004
                   105 -2.065259773244108E-005
                   106 -1.995428547997473E-006
                   107 -1.711521547489922E-005
                   108  2.732354509967716E-005
                   109  2.670684837910184E-006
                   110  7.574200677661892E-004
                   111 -3.378504910368295E-005
                   112  4.187757118029373E-004
                   113 -2.196525771138142E-005
                   114 -1.957823470307339E-005
                   115  6.029591200009545E-005
                   116  1.437351296477451E-006
                   117 -3.375497998362491E-005
                   118 -1.173020230527774E-004
                   119 -1.261187099910396E-006
                   120 -4.607792117912830E-006
                   121 -4.933123704556215E-005
                   122 -2.036530813573689E-004
                   123 -7.491462535021261E-004
                   124  2.269844680822287E-004
                   125 -1.518549544342042E-004
                   126 -8.247736903366894E-006
                   127 -2.971091836647992E-005
                   128 -2.169858678675819E-004
                   129  1.760282867104133E-005
                   130  1.329185043076992E-005
                   131  5.519498294439845E-004
                   132 -1.180748627066616E-005
                   133  3.041544327543618E-004
                   134  6.892106860211532E-004
                   135 -1.914565715260193E-005
                   136 -3.646987695931010E-006
                   137  4.879217815594137E-005
                   138  1.479760839037113E-005
                   139  3.199968847855951E-006
                   140 -3.009353941363251E-004
                   141 -2.825865945141414E-007
                   142 -2.356684912431012E-004
                   143 -2.158120209222292E-005
                   144 -1.484121414590628E-005
                   145 -4.396861097960582E-006
                   146  4.958779264221040E-006
                   147 -3.200605926138810E-005
                   148 -3.425263445529550E-005
                   149 -4.403443013083165E-006
                   150  7.551739275168837E-007
                   151 -6.656084417074953E-006
                   152 -2.033624504526447E-004
                   153 -7.481806525912690E-004
                   154  2.270646996572948E-004
                   155 -1.529314691870304E-004
                   156  7.904414247731586E-006
                   157  2.996291092131195E-005
                   158 -2.169667954737711E-004
                   159 -1.673239618083850E-005
                   160 -1.390218204956160E-005