[Molden Format]
[Atoms] AU
  N     1    7    -0.0042246300   -0.0011810900   -4.3725266100        
  C     2    6    -0.0026486800   -0.0030742900   -1.7238168100        
  C     3    6     0.1128936300   -2.3173577500   -0.4156815900        
  C     4    6    -0.1166323100    2.3093367000   -0.4122380400        
  C     5    6     0.2042997300   -2.2853689000    2.1827268700        
  C     6    6    -0.2049462900    2.2736333100    2.1862289800        
  C     7    6     0.0004461400   -0.0067921000    3.4776379900        
  H     8    1    -1.5451251600   -0.6636386500   -5.3893363800        
  H     9    1     1.5354654000    0.6627306700   -5.3902212500        
  H    10    1     0.2197208100   -4.0449410500   -1.4566786600        
  H    11    1    -0.2246967200    4.0384062700   -1.4506365600        
  H    12    1     0.3995126100   -4.0192104000    3.2105185600        
  H    13    1    -0.3989345000    4.0060036200    3.2167297600        
  H    14    1     0.0016532400   -0.0082421400    5.5063510500        
[5D]
[7F]
[GTO]
  1  0
   s    12 1.00
  0.114200D+05  0.172695D-04
  0.171200D+04  0.134411D-03
  0.389300D+03  0.694561D-03
  0.110000D+03  0.278531D-02
  0.355700D+02  0.863457D-02
  0.125400D+02  0.199805D-01
  0.464400D+01  0.262908D-01
  0.129300D+01 -0.243845D-01
  0.511800D+00 -0.924934D-01
  0.178700D+00 -0.339683D+00
  0.246240D-01  0.345111D+00
  0.112530D-01  0.752750D+00
   s    10 1.00
  0.114200D+05  0.523000D-03
  0.171200D+04  0.404500D-02
  0.389300D+03  0.207750D-01
  0.110000D+03  0.807269D-01
  0.355700D+02  0.233074D+00
  0.125400D+02  0.433501D+00
  0.464400D+01  0.347472D+00
  0.129300D+01  0.412620D-01
  0.511800D+00 -0.850799D-02
  0.178700D+00  0.238400D-02
   s    10 1.00
  0.114200D+05 -0.115000D-03
  0.171200D+04 -0.895000D-03
  0.389300D+03 -0.462400D-02
  0.110000D+03 -0.185280D-01
  0.355700D+02 -0.573390D-01
  0.125400D+02 -0.132076D+00
  0.464400D+01 -0.172510D+00
  0.129300D+01  0.151814D+00
  0.511800D+00  0.599944D+00
  0.178700D+00  0.387462D+00
   s     1 1.00
  0.129300D+01  0.100000D+01
   s     1 1.00
  0.178700D+00  0.100000D+01
   p     5 1.00
  0.266300D+02  0.146700D-01
  0.594800D+01  0.917640D-01
  0.174200D+01  0.298683D+00
  0.555000D+00  0.498487D+00
  0.172500D+00  0.337023D+00
   p     1 1.00
  0.174200D+01  0.100000D+01
   p     1 1.00
  0.555000D+00  0.100000D+01
   d     1 1.00
  0.165400D+01  0.100000D+01
   d     1 1.00
  0.469000D+00  0.100000D+01
   f     1 1.00
  0.109300D+01  0.100000D+01
  
  2  0
   s    10 1.00
  0.823600D+04  0.531000D-03
  0.123500D+04  0.410800D-02
  0.280800D+03  0.210870D-01
  0.792700D+02  0.818530D-01
  0.255900D+02  0.234817D+00
  0.899700D+01  0.434401D+00
  0.331900D+01  0.346129D+00
  0.905900D+00  0.393780D-01
  0.364300D+00 -0.898300D-02
  0.128500D+00  0.238500D-02
   s    10 1.00
  0.823600D+04 -0.113000D-03
  0.123500D+04 -0.878000D-03
  0.280800D+03 -0.454000D-02
  0.792700D+02 -0.181330D-01
  0.255900D+02 -0.557600D-01
  0.899700D+01 -0.126895D+00
  0.331900D+01 -0.170352D+00
  0.905900D+00  0.140382D+00
  0.364300D+00  0.598684D+00
  0.128500D+00  0.395389D+00
   s     1 1.00
  0.905900D+00  0.100000D+01
   s     1 1.00
  0.364300D+00  0.100000D+01
   p     5 1.00
  0.187100D+02  0.140310D-01
  0.413300D+01  0.868660D-01
  0.120000D+01  0.290216D+00
  0.382700D+00  0.501008D+00
  0.120900D+00  0.343406D+00
   p     1 1.00
  0.382700D+00  0.100000D+01
   p     1 1.00
  0.120900D+00  0.100000D+01
   d     1 1.00
  0.109700D+01  0.100000D+01
   d     1 1.00
  0.318000D+00  0.100000D+01
   f     1 1.00
  0.761000D+00  0.100000D+01
  
  3  0
   s    10 1.00
  0.823600D+04  0.531000D-03
  0.123500D+04  0.410800D-02
  0.280800D+03  0.210870D-01
  0.792700D+02  0.818530D-01
  0.255900D+02  0.234817D+00
  0.899700D+01  0.434401D+00
  0.331900D+01  0.346129D+00
  0.905900D+00  0.393780D-01
  0.364300D+00 -0.898300D-02
  0.128500D+00  0.238500D-02
   s    10 1.00
  0.823600D+04 -0.113000D-03
  0.123500D+04 -0.878000D-03
  0.280800D+03 -0.454000D-02
  0.792700D+02 -0.181330D-01
  0.255900D+02 -0.557600D-01
  0.899700D+01 -0.126895D+00
  0.331900D+01 -0.170352D+00
  0.905900D+00  0.140382D+00
  0.364300D+00  0.598684D+00
  0.128500D+00  0.395389D+00
   s     1 1.00
  0.905900D+00  0.100000D+01
   s     1 1.00
  0.364300D+00  0.100000D+01
   p     5 1.00
  0.187100D+02  0.140310D-01
  0.413300D+01  0.868660D-01
  0.120000D+01  0.290216D+00
  0.382700D+00  0.501008D+00
  0.120900D+00  0.343406D+00
   p     1 1.00
  0.382700D+00  0.100000D+01
   p     1 1.00
  0.120900D+00  0.100000D+01
   d     1 1.00
  0.109700D+01  0.100000D+01
   d     1 1.00
  0.318000D+00  0.100000D+01
   f     1 1.00
  0.761000D+00  0.100000D+01
  
  4  0
   s    10 1.00
  0.823600D+04  0.531000D-03
  0.123500D+04  0.410800D-02
  0.280800D+03  0.210870D-01
  0.792700D+02  0.818530D-01
  0.255900D+02  0.234817D+00
  0.899700D+01  0.434401D+00
  0.331900D+01  0.346129D+00
  0.905900D+00  0.393780D-01
  0.364300D+00 -0.898300D-02
  0.128500D+00  0.238500D-02
   s    10 1.00
  0.823600D+04 -0.113000D-03
  0.123500D+04 -0.878000D-03
  0.280800D+03 -0.454000D-02
  0.792700D+02 -0.181330D-01
  0.255900D+02 -0.557600D-01
  0.899700D+01 -0.126895D+00
  0.331900D+01 -0.170352D+00
  0.905900D+00  0.140382D+00
  0.364300D+00  0.598684D+00
  0.128500D+00  0.395389D+00
   s     1 1.00
  0.905900D+00  0.100000D+01
   s     1 1.00
  0.364300D+00  0.100000D+01
   p     5 1.00
  0.187100D+02  0.140310D-01
  0.413300D+01  0.868660D-01
  0.120000D+01  0.290216D+00
  0.382700D+00  0.501008D+00
  0.120900D+00  0.343406D+00
   p     1 1.00
  0.382700D+00  0.100000D+01
   p     1 1.00
  0.120900D+00  0.100000D+01
   d     1 1.00
  0.109700D+01  0.100000D+01
   d     1 1.00
  0.318000D+00  0.100000D+01
   f     1 1.00
  0.761000D+00  0.100000D+01
  
  5  0
   s    10 1.00
  0.823600D+04  0.531000D-03
  0.123500D+04  0.410800D-02
  0.280800D+03  0.210870D-01
  0.792700D+02  0.818530D-01
  0.255900D+02  0.234817D+00
  0.899700D+01  0.434401D+00
  0.331900D+01  0.346129D+00
  0.905900D+00  0.393780D-01
  0.364300D+00 -0.898300D-02
  0.128500D+00  0.238500D-02
   s    10 1.00
  0.823600D+04 -0.113000D-03
  0.123500D+04 -0.878000D-03
  0.280800D+03 -0.454000D-02
  0.792700D+02 -0.181330D-01
  0.255900D+02 -0.557600D-01
  0.899700D+01 -0.126895D+00
  0.331900D+01 -0.170352D+00
  0.905900D+00  0.140382D+00
  0.364300D+00  0.598684D+00
  0.128500D+00  0.395389D+00
   s     1 1.00
  0.905900D+00  0.100000D+01
   s     1 1.00
  0.364300D+00  0.100000D+01
   p     5 1.00
  0.187100D+02  0.140310D-01
  0.413300D+01  0.868660D-01
  0.120000D+01  0.290216D+00
  0.382700D+00  0.501008D+00
  0.120900D+00  0.343406D+00
   p     1 1.00
  0.382700D+00  0.100000D+01
   p     1 1.00
  0.120900D+00  0.100000D+01
   d     1 1.00
  0.109700D+01  0.100000D+01
   d     1 1.00
  0.318000D+00  0.100000D+01
   f     1 1.00
  0.761000D+00  0.100000D+01
  
  6  0
   s    10 1.00
  0.823600D+04  0.531000D-03
  0.123500D+04  0.410800D-02
  0.280800D+03  0.210870D-01
  0.792700D+02  0.818530D-01
  0.255900D+02  0.234817D+00
  0.899700D+01  0.434401D+00
  0.331900D+01  0.346129D+00
  0.905900D+00  0.393780D-01
  0.364300D+00 -0.898300D-02
  0.128500D+00  0.238500D-02
   s    10 1.00
  0.823600D+04 -0.113000D-03
  0.123500D+04 -0.878000D-03
  0.280800D+03 -0.454000D-02
  0.792700D+02 -0.181330D-01
  0.255900D+02 -0.557600D-01
  0.899700D+01 -0.126895D+00
  0.331900D+01 -0.170352D+00
  0.905900D+00  0.140382D+00
  0.364300D+00  0.598684D+00
  0.128500D+00  0.395389D+00
   s     1 1.00
  0.905900D+00  0.100000D+01
   s     1 1.00
  0.364300D+00  0.100000D+01
   p     5 1.00
  0.187100D+02  0.140310D-01
  0.413300D+01  0.868660D-01
  0.120000D+01  0.290216D+00
  0.382700D+00  0.501008D+00
  0.120900D+00  0.343406D+00
   p     1 1.00
  0.382700D+00  0.100000D+01
   p     1 1.00
  0.120900D+00  0.100000D+01
   d     1 1.00
  0.109700D+01  0.100000D+01
   d     1 1.00
  0.318000D+00  0.100000D+01
   f     1 1.00
  0.761000D+00  0.100000D+01
  
  7  0
   s    10 1.00
  0.823600D+04  0.531000D-03
  0.123500D+04  0.410800D-02
  0.280800D+03  0.210870D-01
  0.792700D+02  0.818530D-01
  0.255900D+02  0.234817D+00
  0.899700D+01  0.434401D+00
  0.331900D+01  0.346129D+00
  0.905900D+00  0.393780D-01
  0.364300D+00 -0.898300D-02
  0.128500D+00  0.238500D-02
   s    10 1.00
  0.823600D+04 -0.113000D-03
  0.123500D+04 -0.878000D-03
  0.280800D+03 -0.454000D-02
  0.792700D+02 -0.181330D-01
  0.255900D+02 -0.557600D-01
  0.899700D+01 -0.126895D+00
  0.331900D+01 -0.170352D+00
  0.905900D+00  0.140382D+00
  0.364300D+00  0.598684D+00
  0.128500D+00  0.395389D+00
   s     1 1.00
  0.905900D+00  0.100000D+01
   s     1 1.00
  0.364300D+00  0.100000D+01
   p     5 1.00
  0.187100D+02  0.140310D-01
  0.413300D+01  0.868660D-01
  0.120000D+01  0.290216D+00
  0.382700D+00  0.501008D+00
  0.120900D+00  0.343406D+00
   p     1 1.00
  0.382700D+00  0.100000D+01
   p     1 1.00
  0.120900D+00  0.100000D+01
   d     1 1.00
  0.109700D+01  0.100000D+01
   d     1 1.00
  0.318000D+00  0.100000D+01
   f     1 1.00
  0.761000D+00  0.100000D+01
  
  8  0
   s     4 1.00
  0.130100D+02  0.196850D-01
  0.196200D+01  0.137977D+00
  0.444600D+00  0.478148D+00
  0.122000D+00  0.501240D+00
   s     1 1.00
  0.122000D+00  0.100000D+01
   p     1 1.00
  0.727000D+00  0.100000D+01
  
  9  0
   s     4 1.00
  0.130100D+02  0.196850D-01
  0.196200D+01  0.137977D+00
  0.444600D+00  0.478148D+00
  0.122000D+00  0.501240D+00
   s     1 1.00
  0.122000D+00  0.100000D+01
   p     1 1.00
  0.727000D+00  0.100000D+01
  
 10  0
   s     4 1.00
  0.130100D+02  0.196850D-01
  0.196200D+01  0.137977D+00
  0.444600D+00  0.478148D+00
  0.122000D+00  0.501240D+00
   s     1 1.00
  0.122000D+00  0.100000D+01
   p     1 1.00
  0.727000D+00  0.100000D+01
  
 11  0
   s     4 1.00
  0.130100D+02  0.196850D-01
  0.196200D+01  0.137977D+00
  0.444600D+00  0.478148D+00
  0.122000D+00  0.501240D+00
   s     1 1.00
  0.122000D+00  0.100000D+01
   p     1 1.00
  0.727000D+00  0.100000D+01
  
 12  0
   s     4 1.00
  0.130100D+02  0.196850D-01
  0.196200D+01  0.137977D+00
  0.444600D+00  0.478148D+00
  0.122000D+00  0.501240D+00
   s     1 1.00
  0.122000D+00  0.100000D+01
   p     1 1.00
  0.727000D+00  0.100000D+01
  
 13  0
   s     4 1.00
  0.130100D+02  0.196850D-01
  0.196200D+01  0.137977D+00
  0.444600D+00  0.478148D+00
  0.122000D+00  0.501240D+00
   s     1 1.00
  0.122000D+00  0.100000D+01
   p     1 1.00
  0.727000D+00  0.100000D+01
  
 14  0
   s     4 1.00
  0.130100D+02  0.196850D-01
  0.196200D+01  0.137977D+00
  0.444600D+00  0.478148D+00
  0.122000D+00  0.501240D+00
   s     1 1.00
  0.122000D+00  0.100000D+01
   p     1 1.00
  0.727000D+00  0.100000D+01
  
[MO]
 Sym= __1_a__
 Ene=  0.000000000000000E+000
 Spin= Alpha
 Occup=    2.00000000000000     
                     1  6.387121271370970E-005
                     2  0.997762422739662     
                     3  1.215723931064320E-002
                     4  2.166739647344070E-003
                     5  1.022100227643160E-003
                     6  1.884666216682060E-006
                     7 -2.268883036761410E-006
                     8  3.154180469778570E-003
                     9 -1.800990796028700E-007
                    10  2.216006124937230E-007
                    11 -2.957028457866260E-004
                    12 -3.682342211496870E-007
                    13  4.129347935187160E-007
                    14 -6.152125516752510E-004
                    15  1.370212361906765E-004
                    16  1.652716813467410E-007
                    17 -2.505791940215510E-007
                    18  5.112563523613080E-005
                    19  7.508751543651130E-005
                    20  1.803372659102701E-005
                    21 -4.429665793020730E-008
                    22  4.338290815147930E-007
                    23 -3.542932248834620E-004
                    24 -3.754058333376030E-004
                    25 -1.607002115506220E-004
                    26  1.968111731781627E-007
                    27 -2.004963554140146E-007
                    28 -2.701412988263420E-005
                    29 -5.497079113847460E-005
                    30  6.790013570171013E-008
                    31 -1.667297096643821E-008
                    32 -1.723871850715610E-004
                    33  2.657661902507840E-003
                    34  7.320912989755670E-005
                    35 -5.605441690545250E-004
                    36 -3.776301174425020E-006
                    37  4.548673158450360E-006
                    38 -6.338666935611150E-003
                    39 -1.761104892552480E-007
                    40  1.722077208842160E-007
                    41 -3.158086171494340E-004
                    42  2.131290635498020E-006
                    43 -2.526839652024890E-006
                    44  3.600214550875490E-003
                    45  3.768597896762557E-004
                    46  3.276486409293500E-007
                    47 -5.226446474416420E-007
                    48  9.614076849252541E-005
                    49 -5.797519092715280E-006
                    50  7.232032137527764E-004
                    51  7.415175606120250E-007
                    52 -1.156845610234660E-006
                    53  1.069089011516498E-004
                    54  8.431771685151580E-005
                    55 -4.130610152008498E-005
                    56  5.964578652703180E-009
                    57 -1.155524517542401E-007
                    58  4.452096388336180E-005
                    59 -1.164042450215950E-005
                    60 -2.232661008066744E-008
                    61 -5.106637634532700E-008
                    62 -1.808139797346280E-004
                    63 -1.646075432908430E-003
                    64 -7.712701038776459E-006
                    65  8.181277618273480E-004
                    66  3.070581644389350E-005
                    67 -8.608956422752860E-004
                    68  1.185799773242480E-003
                    69  3.627898206870520E-005
                    70  1.283564179006030E-004
                    71  9.669626096434510E-005
                    72  4.249830915011280E-005
                    73 -5.706893904337690E-004
                    74 -3.304159897549150E-004
                    75  8.991874510308798E-005
                    76  2.884270066041990E-006
                    77 -1.334894266257650E-005
                    78  3.099361893003360E-005
                    79  1.810615856318760E-006
                    80  3.586070175563577E-005
                    81 -9.849903407908719E-006
                    82 -3.311295059534960E-005
                    83  1.272723340830602E-005
                    84  2.381135878439140E-005
                    85 -7.237493865217855E-005
                    86  6.281967617042485E-006
                    87 -5.592116158093392E-006
                    88  2.119492892829920E-005
                    89 -3.241596018713370E-006
                    90  3.106487756627245E-006
                    91  2.171541157834171E-005
                    92 -1.807795194326000E-004
                    93 -1.645937696076690E-003
                    94 -7.558259656112690E-006
                    95  8.176502507421060E-004
                    96 -2.929792935285240E-005
                    97  8.592183564934160E-004
                    98  1.187169182813130E-003
                    99 -3.613800441234050E-005
                   100 -1.286326871307440E-004
                   101  9.598332625715230E-005
                   102 -4.284836910119590E-005
                   103  5.706154039771380E-004
                   104 -3.293827334043560E-004
                   105  8.992783736006496E-005
                   106 -2.732183517749860E-006
                   107  1.309603377246510E-005
                   108  3.101057750233560E-005
                   109  1.829522372244010E-006
                   110  3.550191649894411E-005
                   111  9.966649717500050E-006
                   112  3.287108070785350E-005
                   113  1.270260876627678E-005
                   114  2.383321226406470E-005
                   115 -7.234639114606773E-005
                   116 -6.113855031063765E-006
                   117  5.300862809762848E-006
                   118  2.114836642361900E-005
                   119 -3.192486567493940E-006
                   120 -3.132150360216356E-006
                   121 -2.175588641117818E-005
                   122 -1.506404039596520E-004
                   123  2.495841356948590E-005
                   124  7.064637337423510E-005
                   125  2.814621898332070E-004
                   126 -7.210601469503010E-005
                   127  5.107596506801010E-005
                   128 -8.385976334583050E-004
                   129 -4.843891536845430E-006
                   130  2.704465040320390E-005
                   131  1.890412560671050E-004
                   132  1.615367811308950E-005
                   133 -4.091540094062290E-005
                   134  5.288812718844040E-004
                   135  3.956669947270628E-007
                   136  1.250145703069230E-006
                   137  5.335255905246460E-006
                   138 -2.785784911680060E-006
                   139  1.212976345050280E-006
                   140 -1.180976736533001E-004
                   141 -1.200547928321960E-005
                   142  9.046958450771839E-005
                   143  3.934280899744180E-005
                   144 -3.426822162966290E-006
                   145 -2.283333783237483E-005
                   146  9.675881355021171E-008
                   147 -5.014067495766667E-006
                   148 -8.580315960030299E-006
                   149 -1.328107453060130E-006
                   150 -1.072131458507748E-006
                   151 -2.301762636682523E-006
                   152 -1.510962715741660E-004
                   153  2.333816629697130E-005
                   154  7.016282651527041E-005
                   155  2.844333678368890E-004
                   156  7.109507186871920E-005
                   157 -4.981587250864970E-005
                   158 -8.387290734809350E-004
                   159  5.133720227261410E-006
                   160 -2.771245384317730E-005
                   161  1.887036472761820E-004
                   162 -1.558014906001830E-005
                   163  4.066336751792450E-005
                   164  5.291345392811320E-004
                   165  4.354137984338798E-007
                   166 -1.247348177597960E-006
                   167 -5.343636356036670E-006
                   168 -2.846620455402260E-006
                   169  1.197592598538450E-006
                   170 -1.182381417644470E-004
                   171  1.171947427733470E-005
                   172 -9.049088229016790E-005
                   173  3.916779257873680E-005
                   174 -3.556075676305540E-006
                   175 -2.276551631304403E-005
                   176 -1.182181546937256E-008
                   177  4.960806033490298E-006
                   178 -8.616045918032480E-006
                   179 -1.330319867435650E-006
                   180  1.088737231309717E-006
                   181  2.325332571824784E-006
                   182 -1.226102243627410E-004
                   183 -3.346775675015500E-004
                   184  2.334423382870010E-005
                   185  2.372360895830990E-004
                   186 -3.503115937669150E-008
                   187  1.188022118693100E-007
                   188 -4.034963483213130E-005
                   189  5.222391506841210E-008
                   190 -4.746986833377750E-007
                   191  8.668681984416640E-006
                   192 -2.285584945083820E-008
                   193 -1.660798869573910E-008
                   194 -5.160105313209650E-005
                   195  2.187031458213534E-005
                   196  1.709444544627800E-008
                   197 -8.443709873128950E-009
                   198  7.391323505487080E-006
                   199  2.355828220251980E-006
                   200  2.484600287337342E-005
                   201 -6.534208230755730E-009
                   202  1.787860626218750E-007
                   203  2.420772897870280E-005
                   204  1.500504703596300E-006
                   205 -9.564929021293207E-006
                   206  1.546748543912769E-008
                   207 -2.616046779345199E-008
                   208  1.026398960648814E-006
                   209  1.428214783894360E-006
                   210  5.368173708362811E-009
                   211  2.805843060230697E-008
                   212  5.837778971608230E-003
                   213 -3.211860631010730E-003
                   214  5.773560572064240E-004
                   215  2.397005758601270E-004
                   216  4.162117547849790E-004
                   217  5.837754265594210E-003
                   218 -3.211850533268960E-003
                   219 -5.768575461015800E-004
                   220 -2.402977991885970E-004
                   221  4.165542575247240E-004
                   222 -6.545656856901020E-004
                   223 -1.933876436529140E-004
                   224  4.395843747347250E-006
                   225 -3.817426064140620E-005
                   226 -4.573714893659830E-005
                   227 -6.546275798444670E-004
                   228 -1.930293484950270E-004
                   229 -4.449937761036670E-006
                   230  3.822190078250880E-005
                   231 -4.570207498911930E-005
                   232 -2.618234480923460E-004
                   233 -2.202751996919980E-004
                   234 -2.322476020917630E-006
                   235 -1.419046631940650E-005
                   236 -2.837014893085970E-006
                   237 -2.618655700268610E-004
                   238 -2.204194430570670E-004
                   239  2.313757729855620E-006
                   240  1.423883522223500E-005
                   241 -2.770591291964090E-006
                   242  1.149693012754200E-004
                   243 -1.749756661095140E-005
                   244  8.641512580630670E-009
                   245 -3.194966249152130E-008
                   246  1.267465615984450E-005
 Sym= __2_a__
 Ene=  0.000000000000000E+000
 Spin= Alpha
 Occup=    2.00000000000000     
                     1 -1.104062046296770E-005
                     2 -5.978864204503840E-005
                     3  1.845306694805350E-003
                     4  1.636928553513000E-005
                     5  1.090378721593750E-003
                     6  1.148469426859700E-006
                     7 -1.385212472071290E-006
                     8  1.941881249543180E-003
                     9 -6.865119563851000E-008
                    10  8.363752587541970E-008
                    11 -1.201261746091380E-004
                    12  2.327157260554740E-008
                    13 -2.052821214542590E-008
                    14  3.412088216901330E-005
                    15  6.186317881905990E-005
                    16  4.509183576638180E-008
                    17 -7.402913435321530E-008
                    18  1.084446712613116E-005
                    19 -1.651841144641130E-005
                    20 -5.826068209361459E-005
                    21  1.328927980358150E-008
                    22  6.259708118366570E-008
                    23 -4.015793646312780E-005
                    24  6.585092212436490E-005
                    25  1.897327068339814E-004
                    26 -2.485907287732749E-007
                    27  4.081200595952567E-007
                    28 -5.224275015511440E-005
                    29 -1.984251209703770E-005
                    30  5.558353989620546E-008
                    31  3.163984727005192E-008
                    32   1.00098716736331     
                    33  8.887293718605780E-003
                    34  2.660855235966920E-003
                    35 -8.108738166767130E-003
                    36 -1.777821887493830E-006
                    37  2.128996272011150E-006
                    38 -2.987170735821660E-003
                    39  8.116999391679740E-007
                    40 -9.711347802874299E-007
                    41  1.366760376452520E-003
                    42  2.087633063833170E-006
                    43 -2.564506219684520E-006
                    44  3.496032298312380E-003
                    45  2.323729671507088E-004
                    46  4.699849751076850E-007
                    47  7.793609911072731E-009
                    48 -4.052991349563820E-004
                    49 -1.456397326887840E-005
                    50  4.340052666025612E-004
                    51 -4.939060648954820E-008
                    52 -1.211044874104270E-006
                    53  9.130094038605120E-004
                    54  6.266049457244390E-005
                    55  2.732708765142826E-004
                    56 -2.329394312223069E-007
                    57  6.831366252752308E-007
                    58 -1.785721961037880E-004
                    59 -1.809769383693830E-006
                    60  1.319239358839290E-007
                    61  1.567765950738702E-007
                    62  1.389442583298500E-002
                    63 -1.771742763310570E-003
                    64 -2.890788594232750E-004
                    65  3.001060008664260E-003
                    66 -8.875966909896869E-006
                    67  2.729919813768840E-004
                    68 -1.228479327515040E-004
                    69 -2.135837100789870E-005
                    70  4.803800922025180E-004
                    71  2.716788831997550E-005
                    72  1.212137934748070E-004
                    73 -1.851397668137650E-003
                    74  1.290209513250870E-004
                    75 -2.683878208889663E-005
                    76  1.578990743846830E-006
                    77  2.450281401888770E-005
                    78  2.171236204920620E-005
                    79  1.614518740502700E-006
                    80  8.380705060822032E-004
                    81  4.809016641666730E-005
                    82 -5.132100135116390E-004
                    83  5.013200805208060E-006
                    84 -1.256045723402740E-005
                    85  4.385079060718084E-005
                    86  1.822729778612138E-006
                    87  3.267791256496734E-005
                    88 -9.944337951865220E-005
                    89 -5.067545373092730E-006
                    90  7.666126050587929E-006
                    91  5.628747143889451E-005
                    92  1.389439931957640E-002
                    93 -1.771819100398380E-003
                    94 -2.891252369011790E-004
                    95  3.001253235990140E-003
                    96  8.730247403400630E-006
                    97 -2.728179292934680E-004
                    98 -1.232756289646780E-004
                    99  2.138451376148740E-005
                   100 -4.804087478897900E-004
                   101  2.660074466092120E-005
                   102 -1.210706067286780E-004
                   103  1.851357221877810E-003
                   104  1.316639057074770E-004
                   105 -2.688255779653019E-005
                   106 -1.658388964135600E-006
                   107 -2.447533253625650E-005
                   108  2.167411484736880E-005
                   109  1.588024533515680E-006
                   110  8.395181082200823E-004
                   111 -4.639157266171720E-005
                   112  5.111875451416050E-004
                   113  5.711298734730140E-006
                   114 -1.188222278720190E-005
                   115  4.394296420284749E-005
                   116 -1.776010294512575E-006
                   117 -3.228893965842291E-005
                   118 -9.962740830091200E-005
                   119 -5.055534728478820E-006
                   120 -7.511887293110231E-006
                   121 -5.612001239672063E-005
                   122 -1.051539922971630E-004
                   123 -7.570169993229590E-004
                   124  2.329950438898430E-004
                   125 -2.312761528631710E-004
                   126 -9.852086470529640E-006
                   127 -5.439013415466350E-005
                   128 -1.758750745355640E-004
                   129  2.835120586250180E-005
                   130  7.419015538419640E-005
                   131  5.611553065780060E-004
                   132 -1.879142808823550E-005
                   133  3.448272768710550E-004
                   134  5.931215760689230E-004
                   135 -2.544042008860188E-005
                   136 -5.053359853164040E-006
                   137  4.908254927214260E-005
                   138  1.645799695706052E-005
                   139  6.536396279735590E-006
                   140 -3.145205721837039E-004
                   141 -8.355773653053139E-006
                   142 -3.027223764717160E-004
                   143 -3.579896647309840E-005
                   144 -3.689132999800400E-005
                   145 -9.291230748124870E-006
                   146  6.650596320769308E-006
                   147 -1.957446509028965E-005
                   148 -2.185225221289600E-005
                   149 -5.021171319589530E-006
                   150 -4.432723111408919E-007
                   151 -8.336668649230613E-006
                   152 -1.048732283894330E-004
                   153 -7.560884139137950E-004
                   154  2.330874278118490E-004
                   155 -2.323621655940420E-004
                   156  9.645297078094240E-006
                   157  5.462733109442490E-005
                   158 -1.758125830348880E-004
                   159 -2.769723330785480E-005
                   160 -7.491361749911790E-005