[Molden Format]
[Atoms] AU
  N     1    7    -4.4527169600    0.1631575000   -0.0245840500        
  C     2    6    -1.7700380400   -0.0156596300   -0.0109431000        
  C     3    6    -0.4229296900    0.0049888900   -2.2780586300        
  C     4    6    -0.4323673700   -0.0196996000    2.2600716700        
  C     5    6     2.1920859000    0.0063317600   -2.2603028300        
  C     6    6     2.1847036700   -0.0105903900    2.2529676300        
  C     7    6     3.5143115300    0.0003429900   -0.0004432500        
  H     8    1    -5.1873314600   -0.8151500500   -1.5198713800        
  H     9    1    -5.1844441000   -0.6107338500    1.5874844000        
  H    10    1    -1.4239273900    0.0252000300   -4.0418850700        
  H    11    1    -1.4383820500   -0.0282564500    4.0213477200        
  H    12    1     3.1982814200    0.0135296500   -4.0224847500        
  H    13    1     3.1834100700   -0.0189826700    4.0194136500        
  H    14    1     5.5421766500    0.0029228400    0.0030155500        
[5D]
[7F]
[GTO]
  1  0
   s    12 1.00
  0.114200D+05  0.172695D-04
  0.171200D+04  0.134411D-03
  0.389300D+03  0.694561D-03
  0.110000D+03  0.278531D-02
  0.355700D+02  0.863457D-02
  0.125400D+02  0.199805D-01
  0.464400D+01  0.262908D-01
  0.129300D+01 -0.243845D-01
  0.511800D+00 -0.924934D-01
  0.178700D+00 -0.339683D+00
  0.246240D-01  0.345111D+00
  0.112530D-01  0.752750D+00
   s    10 1.00
  0.114200D+05  0.523000D-03
  0.171200D+04  0.404500D-02
  0.389300D+03  0.207750D-01
  0.110000D+03  0.807269D-01
  0.355700D+02  0.233074D+00
  0.125400D+02  0.433501D+00
  0.464400D+01  0.347472D+00
  0.129300D+01  0.412620D-01
  0.511800D+00 -0.850799D-02
  0.178700D+00  0.238400D-02
   s    10 1.00
  0.114200D+05 -0.115000D-03
  0.171200D+04 -0.895000D-03
  0.389300D+03 -0.462400D-02
  0.110000D+03 -0.185280D-01
  0.355700D+02 -0.573390D-01
  0.125400D+02 -0.132076D+00
  0.464400D+01 -0.172510D+00
  0.129300D+01  0.151814D+00
  0.511800D+00  0.599944D+00
  0.178700D+00  0.387462D+00
   s     1 1.00
  0.129300D+01  0.100000D+01
   s     1 1.00
  0.178700D+00  0.100000D+01
   p     5 1.00
  0.266300D+02  0.146700D-01
  0.594800D+01  0.917640D-01
  0.174200D+01  0.298683D+00
  0.555000D+00  0.498487D+00
  0.172500D+00  0.337023D+00
   p     1 1.00
  0.174200D+01  0.100000D+01
   p     1 1.00
  0.555000D+00  0.100000D+01
   d     1 1.00
  0.165400D+01  0.100000D+01
   d     1 1.00
  0.469000D+00  0.100000D+01
   f     1 1.00
  0.109300D+01  0.100000D+01
  
  2  0
   s    10 1.00
  0.823600D+04  0.531000D-03
  0.123500D+04  0.410800D-02
  0.280800D+03  0.210870D-01
  0.792700D+02  0.818530D-01
  0.255900D+02  0.234817D+00
  0.899700D+01  0.434401D+00
  0.331900D+01  0.346129D+00
  0.905900D+00  0.393780D-01
  0.364300D+00 -0.898300D-02
  0.128500D+00  0.238500D-02
   s    10 1.00
  0.823600D+04 -0.113000D-03
  0.123500D+04 -0.878000D-03
  0.280800D+03 -0.454000D-02
  0.792700D+02 -0.181330D-01
  0.255900D+02 -0.557600D-01
  0.899700D+01 -0.126895D+00
  0.331900D+01 -0.170352D+00
  0.905900D+00  0.140382D+00
  0.364300D+00  0.598684D+00
  0.128500D+00  0.395389D+00
   s     1 1.00
  0.905900D+00  0.100000D+01
   s     1 1.00
  0.364300D+00  0.100000D+01
   p     5 1.00
  0.187100D+02  0.140310D-01
  0.413300D+01  0.868660D-01
  0.120000D+01  0.290216D+00
  0.382700D+00  0.501008D+00
  0.120900D+00  0.343406D+00
   p     1 1.00
  0.382700D+00  0.100000D+01
   p     1 1.00
  0.120900D+00  0.100000D+01
   d     1 1.00
  0.109700D+01  0.100000D+01
   d     1 1.00
  0.318000D+00  0.100000D+01
   f     1 1.00
  0.761000D+00  0.100000D+01
  
  3  0
   s    10 1.00
  0.823600D+04  0.531000D-03
  0.123500D+04  0.410800D-02
  0.280800D+03  0.210870D-01
  0.792700D+02  0.818530D-01
  0.255900D+02  0.234817D+00
  0.899700D+01  0.434401D+00
  0.331900D+01  0.346129D+00
  0.905900D+00  0.393780D-01
  0.364300D+00 -0.898300D-02
  0.128500D+00  0.238500D-02
   s    10 1.00
  0.823600D+04 -0.113000D-03
  0.123500D+04 -0.878000D-03
  0.280800D+03 -0.454000D-02
  0.792700D+02 -0.181330D-01
  0.255900D+02 -0.557600D-01
  0.899700D+01 -0.126895D+00
  0.331900D+01 -0.170352D+00
  0.905900D+00  0.140382D+00
  0.364300D+00  0.598684D+00
  0.128500D+00  0.395389D+00
   s     1 1.00
  0.905900D+00  0.100000D+01
   s     1 1.00
  0.364300D+00  0.100000D+01
   p     5 1.00
  0.187100D+02  0.140310D-01
  0.413300D+01  0.868660D-01
  0.120000D+01  0.290216D+00
  0.382700D+00  0.501008D+00
  0.120900D+00  0.343406D+00
   p     1 1.00
  0.382700D+00  0.100000D+01
   p     1 1.00
  0.120900D+00  0.100000D+01
   d     1 1.00
  0.109700D+01  0.100000D+01
   d     1 1.00
  0.318000D+00  0.100000D+01
   f     1 1.00
  0.761000D+00  0.100000D+01
  
  4  0
   s    10 1.00
  0.823600D+04  0.531000D-03
  0.123500D+04  0.410800D-02
  0.280800D+03  0.210870D-01
  0.792700D+02  0.818530D-01
  0.255900D+02  0.234817D+00
  0.899700D+01  0.434401D+00
  0.331900D+01  0.346129D+00
  0.905900D+00  0.393780D-01
  0.364300D+00 -0.898300D-02
  0.128500D+00  0.238500D-02
   s    10 1.00
  0.823600D+04 -0.113000D-03
  0.123500D+04 -0.878000D-03
  0.280800D+03 -0.454000D-02
  0.792700D+02 -0.181330D-01
  0.255900D+02 -0.557600D-01
  0.899700D+01 -0.126895D+00
  0.331900D+01 -0.170352D+00
  0.905900D+00  0.140382D+00
  0.364300D+00  0.598684D+00
  0.128500D+00  0.395389D+00
   s     1 1.00
  0.905900D+00  0.100000D+01
   s     1 1.00
  0.364300D+00  0.100000D+01
   p     5 1.00
  0.187100D+02  0.140310D-01
  0.413300D+01  0.868660D-01
  0.120000D+01  0.290216D+00
  0.382700D+00  0.501008D+00
  0.120900D+00  0.343406D+00
   p     1 1.00
  0.382700D+00  0.100000D+01
   p     1 1.00
  0.120900D+00  0.100000D+01
   d     1 1.00
  0.109700D+01  0.100000D+01
   d     1 1.00
  0.318000D+00  0.100000D+01
   f     1 1.00
  0.761000D+00  0.100000D+01
  
  5  0
   s    10 1.00
  0.823600D+04  0.531000D-03
  0.123500D+04  0.410800D-02
  0.280800D+03  0.210870D-01
  0.792700D+02  0.818530D-01
  0.255900D+02  0.234817D+00
  0.899700D+01  0.434401D+00
  0.331900D+01  0.346129D+00
  0.905900D+00  0.393780D-01
  0.364300D+00 -0.898300D-02
  0.128500D+00  0.238500D-02
   s    10 1.00
  0.823600D+04 -0.113000D-03
  0.123500D+04 -0.878000D-03
  0.280800D+03 -0.454000D-02
  0.792700D+02 -0.181330D-01
  0.255900D+02 -0.557600D-01
  0.899700D+01 -0.126895D+00
  0.331900D+01 -0.170352D+00
  0.905900D+00  0.140382D+00
  0.364300D+00  0.598684D+00
  0.128500D+00  0.395389D+00
   s     1 1.00
  0.905900D+00  0.100000D+01
   s     1 1.00
  0.364300D+00  0.100000D+01
   p     5 1.00
  0.187100D+02  0.140310D-01
  0.413300D+01  0.868660D-01
  0.120000D+01  0.290216D+00
  0.382700D+00  0.501008D+00
  0.120900D+00  0.343406D+00
   p     1 1.00
  0.382700D+00  0.100000D+01
   p     1 1.00
  0.120900D+00  0.100000D+01
   d     1 1.00
  0.109700D+01  0.100000D+01
   d     1 1.00
  0.318000D+00  0.100000D+01
   f     1 1.00
  0.761000D+00  0.100000D+01
  
  6  0
   s    10 1.00
  0.823600D+04  0.531000D-03
  0.123500D+04  0.410800D-02
  0.280800D+03  0.210870D-01
  0.792700D+02  0.818530D-01
  0.255900D+02  0.234817D+00
  0.899700D+01  0.434401D+00
  0.331900D+01  0.346129D+00
  0.905900D+00  0.393780D-01
  0.364300D+00 -0.898300D-02
  0.128500D+00  0.238500D-02
   s    10 1.00
  0.823600D+04 -0.113000D-03
  0.123500D+04 -0.878000D-03
  0.280800D+03 -0.454000D-02
  0.792700D+02 -0.181330D-01
  0.255900D+02 -0.557600D-01
  0.899700D+01 -0.126895D+00
  0.331900D+01 -0.170352D+00
  0.905900D+00  0.140382D+00
  0.364300D+00  0.598684D+00
  0.128500D+00  0.395389D+00
   s     1 1.00
  0.905900D+00  0.100000D+01
   s     1 1.00
  0.364300D+00  0.100000D+01
   p     5 1.00
  0.187100D+02  0.140310D-01
  0.413300D+01  0.868660D-01
  0.120000D+01  0.290216D+00
  0.382700D+00  0.501008D+00
  0.120900D+00  0.343406D+00
   p     1 1.00
  0.382700D+00  0.100000D+01
   p     1 1.00
  0.120900D+00  0.100000D+01
   d     1 1.00
  0.109700D+01  0.100000D+01
   d     1 1.00
  0.318000D+00  0.100000D+01
   f     1 1.00
  0.761000D+00  0.100000D+01
  
  7  0
   s    10 1.00
  0.823600D+04  0.531000D-03
  0.123500D+04  0.410800D-02
  0.280800D+03  0.210870D-01
  0.792700D+02  0.818530D-01
  0.255900D+02  0.234817D+00
  0.899700D+01  0.434401D+00
  0.331900D+01  0.346129D+00
  0.905900D+00  0.393780D-01
  0.364300D+00 -0.898300D-02
  0.128500D+00  0.238500D-02
   s    10 1.00
  0.823600D+04 -0.113000D-03
  0.123500D+04 -0.878000D-03
  0.280800D+03 -0.454000D-02
  0.792700D+02 -0.181330D-01
  0.255900D+02 -0.557600D-01
  0.899700D+01 -0.126895D+00
  0.331900D+01 -0.170352D+00
  0.905900D+00  0.140382D+00
  0.364300D+00  0.598684D+00
  0.128500D+00  0.395389D+00
   s     1 1.00
  0.905900D+00  0.100000D+01
   s     1 1.00
  0.364300D+00  0.100000D+01
   p     5 1.00
  0.187100D+02  0.140310D-01
  0.413300D+01  0.868660D-01
  0.120000D+01  0.290216D+00
  0.382700D+00  0.501008D+00
  0.120900D+00  0.343406D+00
   p     1 1.00
  0.382700D+00  0.100000D+01
   p     1 1.00
  0.120900D+00  0.100000D+01
   d     1 1.00
  0.109700D+01  0.100000D+01
   d     1 1.00
  0.318000D+00  0.100000D+01
   f     1 1.00
  0.761000D+00  0.100000D+01
  
  8  0
   s     4 1.00
  0.130100D+02  0.196850D-01
  0.196200D+01  0.137977D+00
  0.444600D+00  0.478148D+00
  0.122000D+00  0.501240D+00
   s     1 1.00
  0.122000D+00  0.100000D+01
   p     1 1.00
  0.727000D+00  0.100000D+01
  
  9  0
   s     4 1.00
  0.130100D+02  0.196850D-01
  0.196200D+01  0.137977D+00
  0.444600D+00  0.478148D+00
  0.122000D+00  0.501240D+00
   s     1 1.00
  0.122000D+00  0.100000D+01
   p     1 1.00
  0.727000D+00  0.100000D+01
  
 10  0
   s     4 1.00
  0.130100D+02  0.196850D-01
  0.196200D+01  0.137977D+00
  0.444600D+00  0.478148D+00
  0.122000D+00  0.501240D+00
   s     1 1.00
  0.122000D+00  0.100000D+01
   p     1 1.00
  0.727000D+00  0.100000D+01
  
 11  0
   s     4 1.00
  0.130100D+02  0.196850D-01
  0.196200D+01  0.137977D+00
  0.444600D+00  0.478148D+00
  0.122000D+00  0.501240D+00
   s     1 1.00
  0.122000D+00  0.100000D+01
   p     1 1.00
  0.727000D+00  0.100000D+01
  
 12  0
   s     4 1.00
  0.130100D+02  0.196850D-01
  0.196200D+01  0.137977D+00
  0.444600D+00  0.478148D+00
  0.122000D+00  0.501240D+00
   s     1 1.00
  0.122000D+00  0.100000D+01
   p     1 1.00
  0.727000D+00  0.100000D+01
  
 13  0
   s     4 1.00
  0.130100D+02  0.196850D-01
  0.196200D+01  0.137977D+00
  0.444600D+00  0.478148D+00
  0.122000D+00  0.501240D+00
   s     1 1.00
  0.122000D+00  0.100000D+01
   p     1 1.00
  0.727000D+00  0.100000D+01
  
 14  0
   s     4 1.00
  0.130100D+02  0.196850D-01
  0.196200D+01  0.137977D+00
  0.444600D+00  0.478148D+00
  0.122000D+00  0.501240D+00
   s     1 1.00
  0.122000D+00  0.100000D+01
   p     1 1.00
  0.727000D+00  0.100000D+01
  
[MO]
 Sym= __1_A__
 Ene=   1.00000000000000     
 Spin= Alpha
 Occup=    1.00000000000000     
                     1  2.224336264015415E-004
                     2  0.998066515423627     
                     3  4.206067708695923E-003
                     4  1.919634077507281E-003
                     5  5.420090605843760E-003
                     6  5.448577332672206E-003
                     7 -4.758191940475491E-003
                     8  4.130094719167825E-004
                     9 -7.501858150749250E-004
                    10  2.370649524707086E-004
                    11 -4.607644626631140E-005
                    12 -1.331597659650199E-003
                    13  3.092861492410143E-003
                    14 -2.513058115921017E-004
                    15 -5.384103144415261E-006
                    16 -6.846070781850366E-006
                    17  6.044629501185529E-007
                    18  7.988136840179776E-005
                    19  6.423501752301015E-005
                    20 -3.842959616621347E-004
                    21  4.995683935771146E-005
                    22 -2.532493697174231E-005
                    23  4.743095820227066E-005
                    24 -4.846810607733551E-004
                    25 -1.182532738774668E-005
                    26 -1.465818659601222E-004
                    27 -7.169447079420291E-005
                    28  1.287320413618331E-005
                    29 -5.060865512420767E-006
                    30 -9.897980667029819E-005
                    31 -5.877051707037776E-005
                    32 -3.912580201622028E-004
                    33  9.759490950670716E-004
                    34  2.414249714844683E-004
                    35 -1.116311857204184E-004
                    36 -4.515751982078657E-003
                    37 -2.625783006271525E-006
                    38 -2.511662692004304E-005
                    39  2.032091266334774E-004
                    40 -1.269335891120885E-005
                    41  7.274484475217773E-005
                    42  4.854969874588641E-003
                    43  7.820863433468927E-004
                    44 -3.624632198088600E-004
                    45 -2.282927200962468E-004
                    46  4.053974825127102E-006
                    47  1.222481192796437E-006
                    48  2.100928178655312E-004
                    49  4.768721453763617E-005
                    50  4.621444531266836E-004
                    51  5.455746543596521E-005
                    52 -8.429277673598162E-006
                    53 -4.686602812953044E-005
                    54 -3.537722346937595E-004
                    55  4.097977561333516E-006
                    56 -6.231772028174559E-005
                    57  1.108804645683783E-005
                    58  2.849026749508922E-006
                    59  3.214131900753795E-007
                    60 -3.490877862933606E-005
                    61  3.624131382680551E-005
                    62 -3.893339851591858E-004
                    63 -1.918380064542570E-003
                    64  8.233655744100870E-005
                    65  9.963737581659496E-004
                    66  5.975547840434352E-004
                    67 -8.767376248651755E-005
                    68 -6.144127387615869E-004
                    69  6.353043750829898E-004
                    70  8.186446704368937E-005
                    71  1.538188409376817E-004
                    72 -2.527671497302194E-004
                    73 -3.520853630215699E-004
                    74 -8.873407099139899E-004
                    75 -7.624088746574984E-005
                    76 -1.391409785485039E-005
                    77  1.879117038493345E-005
                    78  6.468000654434135E-005
                    79 -9.409270094681200E-006
                    80  1.976036329417427E-004
                    81  1.855585142143765E-004
                    82 -2.989668501226215E-005
                    83 -1.051089696699112E-004
                    84  5.167964064741245E-005
                    85 -9.779032894056491E-006
                    86 -6.434380470970130E-005
                    87  2.124718718035509E-005
                    88 -1.044414571787652E-005
                    89  1.312146546250974E-005
                    90 -4.962895634611024E-005
                    91 -1.173446386057201E-005
                    92 -3.235803106422372E-004
                    93 -1.702626839095869E-003
                    94  1.116383336940224E-004
                    95  6.805836761585686E-004
                    96  6.212983651554395E-004
                    97 -8.813165259012212E-005
                    98  5.924446431425554E-004
                    99  5.570258876780068E-004
                   100  8.559184625194924E-005
                   101 -6.844883348138658E-005
                   102 -6.907806751781085E-004
                   103 -3.578687288048422E-004
                   104  7.041170896277204E-004
                   105 -7.584209448807770E-005
                   106  1.152332543933422E-005
                   107 -1.769893257327413E-005
                   108  6.067209173613768E-005
                   109 -9.891967482885268E-006
                   110  1.616163864381356E-004
                   111 -1.860652297125347E-004
                   112  2.408486792141748E-005
                   113 -1.314989100564443E-004
                   114  5.669629168825006E-005
                   115  5.770792566545918E-006
                   116 -4.731283400959753E-005
                   117  2.106296289606533E-005
                   118  1.272895302357429E-005
                   119 -1.281068635597775E-005
                   120 -4.293781338856372E-005
                   121 -1.089843679992481E-005
                   122 -1.973700307434959E-004
                   123 -3.253380699527361E-004
                   124  6.121029596785009E-005
                   125  5.609045051739056E-004
                   126 -5.675680198347110E-004
                   127 -3.359195011167357E-005
                   128  1.970734229890342E-005
                   129  2.685344343900393E-004
                   130 -2.461407986646374E-005
                   131  3.782230887139613E-005
                   132  1.060502183110160E-003
                   133  1.583911239504905E-004
                   134 -1.806287746563594E-004
                   135  6.777341991725904E-006
                   136  5.772472300151175E-007
                   137 -4.009939763602145E-006
                   138 -1.621517687814021E-006
                   139  9.350066940273097E-006
                   140  9.579574223104704E-005
                   141  2.089051410707885E-004
                   142  9.380690893497581E-006
                   143 -2.055587638983866E-004
                   144 -1.740232229004801E-005
                   145 -1.356705878709900E-005
                   146 -1.569405818119644E-005
                   147  2.385158312025131E-006
                   148 -4.959073455509766E-006
                   149 -1.930971548289290E-006
                   150 -4.870893304227914E-005
                   151 -1.317576840410793E-006
                   152 -1.785391013054660E-004
                   153 -2.642755188852721E-004
                   154  4.533404837157470E-005
                   155  5.270588301625646E-004
                   156 -5.569522632690419E-004
                   157 -3.254410374349369E-005
                   158 -3.019875301468714E-005
                   159  1.784377148595487E-004
                   160 -2.642158258592791E-005
                   161  1.971595053460322E-005
                   162  6.261188154510726E-004
                   163  1.515554530922367E-004
                   164  3.603763900268231E-004
                   165  1.697773369605983E-006
                   166  6.894098886318734E-007
                   167  3.809675782949048E-006
                   168  2.219634638302560E-006
                   169  8.879114004843124E-006
                   170  5.419660193157741E-005
                   171 -1.749479040621582E-004
                   172 -7.824147713176805E-006
                   173 -1.599920384840043E-004
                   174 -1.296705781163031E-005
                   175  8.589218203164351E-006
                   176 -1.400930829701055E-005
                   177  2.722111546158507E-006
                   178  3.355387426644652E-006
                   179  1.454218653980542E-006
                   180 -4.041940417991027E-005
                   181 -1.797589830206315E-006
                   182 -1.245546626429256E-004
                   183 -3.854893792016437E-004
                   184  2.714358568373766E-005
                   185  1.501277246574652E-004
                   186 -1.643054420377568E-005
                   187 -4.308791546020237E-005
                   188 -1.035198285496041E-005
                   189  9.411843769360495E-005
                   190  2.181680163601463E-005
                   191  4.400834081859794E-005
                   192 -3.656134488424643E-004
                   193 -1.100955516212105E-004
                   194  2.392916906914907E-004
                   195 -1.042496907829361E-005
                   196  3.670017266231896E-007
                   197 -9.696326421746852E-009
                   198  4.169062759915808E-006
                   199 -2.359587315787481E-006
                   200 -1.135923875611757E-004
                   201 -3.638620520072234E-005
                   202  5.068358064030434E-007
                   203  6.392822321361322E-005
                   204  1.704412732347561E-005
                   205  4.177240641360710E-007
                   206  9.038755016724349E-007
                   207  3.105784929196210E-006
                   208  2.875056231974366E-006
                   209 -1.343174768150984E-007
                   210 -5.617538118246165E-006
                   211 -2.632021688311288E-006
                   212  2.826651647185529E-003
                   213 -2.213843438423658E-003
                   214  1.845936727147736E-004
                   215  3.245910694655221E-004
                   216  3.496411611917364E-004
                   217  2.893442057934730E-003
                   218 -2.247951134812637E-003
                   219  1.916861588783233E-004
                   220  2.780188713496795E-004
                   221 -4.000209818672120E-004
                   222 -5.158156048885080E-004
                   223 -3.006758589985051E-004
                   224 -6.375251098352400E-005
                   225  9.679136427626579E-006
                   226  3.647146980699165E-005
                   227 -5.020546141950522E-004
                   228 -3.134650597412351E-004
                   229 -5.878091074909682E-005
                   230  1.065132496670745E-005
                   231 -3.834219482807286E-005
                   232 -1.162854733010855E-004
                   233 -4.871471884607213E-004
                   234  4.099051229903878E-006
                   235 -1.440124105202713E-006
                   236 -8.501182465380367E-006
                   237 -1.265426929386262E-004
                   238 -4.488555861724801E-004
                   239  6.143432075341485E-006
                   240 -1.773198648918298E-006
                   241  1.066271629630881E-005
                   242  1.988847618174579E-005
                   243  1.155047046138067E-004
                   244  2.970852947193527E-005
                   245  1.801663880268943E-006
                   246  3.045294375587865E-007
 Sym= __2_A__
 Ene=   2.00000000000000     
 Spin= Alpha
 Occup=    1.00000000000000     
                     1 -2.126446897121434E-005
                     2 -8.375133535229509E-005
                     3  1.977187774975455E-003
                     4 -1.232209961819224E-005
                     5  1.248669340357931E-003
                     6  1.958432774645717E-003
                     7  3.107262521026967E-004
                     8 -3.448258288208385E-005
                     9 -1.488827855389202E-004
                    10  9.871789782482663E-005
                    11 -3.725746087420516E-006
                    12  3.498635699907197E-005
                    13  4.269798356620320E-005
                    14  1.306657838318905E-005
                    15 -7.294407146281384E-005
                    16  1.903565853658831E-006
                    17 -1.596558052761470E-006
                    18  3.967240664511766E-005
                    19 -3.036519045718048E-006
                    20  1.885328228796932E-004
                    21 -1.178230292300099E-005
                    22  4.808835171277402E-006
                    23  9.737377098394246E-005
                    24 -3.973772577953007E-005
                    25 -1.050661580298889E-005
                    26  1.398452924054511E-004
                    27 -5.742870402010110E-005
                    28  3.804803625252914E-007
                    29  3.279106706109907E-007
                    30  1.284678974473472E-004
                    31  3.611539172404498E-005
                    32   1.00097053121932     
                    33  8.778912594333181E-003
                    34  2.780465200890270E-003
                    35 -8.215065484914961E-003
                    36 -2.612022017371106E-003
                    37  7.065412847979671E-004
                    38  1.098495118322150E-006
                    39  1.098080143524138E-003
                    40 -2.276225871103104E-004
                    41 -1.377930428043376E-005
                    42  3.474434512087857E-003
                    43 -1.296170672289147E-004
                    44 -3.292775201536361E-005
                    45  2.960895600738448E-004
                    46  3.498579820687095E-006
                    47 -2.462081190753966E-006
                    48  4.202328236812884E-004
                    49 -2.506669226512517E-005
                    50 -1.048056400443772E-003
                    51 -2.245621456394418E-005
                    52  1.143168229057839E-005
                    53 -1.102239104668045E-004
                    54  3.257102483717969E-005
                    55 -1.480447151172404E-006
                    56  3.133189729841676E-004
                    57 -8.638510341306875E-006
                    58 -2.218661343104974E-006
                    59 -6.146903073135932E-007
                    60  8.253672240608959E-005
                    61  1.904951161578603E-005
                    62  1.229802560279616E-002
                    63 -1.872708172570841E-003
                    64 -3.091002671700848E-004
                    65  3.136091260876851E-003
                    66 -1.439814256786254E-004
                    67  1.249836306500887E-004
                    68  2.584754914521941E-004
                    69  2.985896851003838E-005
                    70 -5.008472490146456E-007
                    71  5.056867080970302E-004
                    72  1.889184620090370E-004
                    73 -2.284054775459538E-005
                    74 -1.850481708681361E-003
                    75 -1.058890902699597E-005
                    76  2.516051445352085E-005
                    77  9.075869944115318E-006
                    78 -3.610932015764444E-005
                    79 -4.933533692322158E-006
                    80 -4.258809112291034E-004
                    81 -4.646703871633462E-004
                    82  1.277561473245992E-006
                    83  7.650185214524388E-004
                    84 -1.199513719816622E-006
                    85  5.082900519432017E-005
                    86  1.084618825343435E-004
                    87  1.645234717437025E-006
                    88 -1.606200165256817E-005
                    89 -7.986986517420110E-006
                    90 -2.879787432444816E-005
                    91  4.912470760926132E-006
                    92  1.249869106535855E-002
                    93 -1.858698140852914E-003
                    94 -3.168236205078444E-004
                    95  3.172928849011707E-003
                    96 -1.501738729450545E-004
                    97  1.284939957023763E-004
                    98 -2.556547780807941E-004
                    99  2.617021659011023E-005
                   100  5.437630236200173E-006
                   101 -5.354135578203392E-004
                   102  1.244548581619208E-004
                   103 -4.211711539285937E-005
                   104  1.836585732465929E-003
                   105 -9.858932819230762E-006
                   106 -2.416328381738310E-005
                   107 -8.305762323671073E-006
                   108 -3.550170158481936E-005
                   109 -4.886646243713084E-006
                   110 -4.132645994979491E-004
                   111  4.738145013704790E-004
                   112 -1.039099271622013E-006
                   113  7.572643325163482E-004
                   114 -3.639887065365959E-006
                   115 -5.132297630104419E-005
                   116  1.064849458864756E-004
                   117 -3.856862923480400E-007
                   118  1.676516066486931E-005
                   119  5.792543547540870E-006
                   120 -3.032051788093088E-005
                   121  5.246179434448759E-006
                   122 -1.507868663735714E-004
                   123 -7.186032970296927E-004
                   124  2.512938325791101E-004
                   125 -3.153725110350397E-004
                   126 -1.911768855992399E-004
                   127  2.458628921011732E-005
                   128 -4.432065969925319E-005
                   129  6.015312052773953E-004
                   130 -3.186678035808441E-006
                   131  4.714397245524455E-005
                   132  6.051370705198640E-004
                   133  1.228325902688949E-006
                   134  3.520908182171714E-004
                   135 -2.001258763769323E-008
                   136  4.195097016337037E-005
                   137  1.935692147621720E-007
                   138 -3.355609882255430E-005
                   139 -1.668221089275393E-006
                   140  1.953490764182586E-004
                   141 -2.628246253799738E-004
                   142  2.135927034488887E-006
                   143 -2.657811942862376E-004
                   144 -2.438517939622040E-006
                   145 -1.807104418181722E-005
                   146  1.362093954970851E-005
                   147  3.344591024688267E-008
                   148 -1.283215483573772E-005
                   149 -2.185426548025895E-006
                   150 -2.527925127878895E-005
                   151 -5.552811301985113E-007
                   152 -1.458858802611453E-004
                   153 -7.089877522091837E-004
                   154  2.541523666495089E-004
                   155 -3.317827818000383E-004
                   156 -1.892079574037172E-004
                   157  2.240628470825142E-005
                   158  4.136021263310817E-005
                   159  5.991550882674032E-004
                   160 -2.569232881152205E-007