[Molden Format]
[Atoms] AU
  N     1    7    -0.0034053200   -0.0024578800   -4.3489558100        
  C     2    6    -0.0023874100   -0.0036371600   -1.7448326000        
  C     3    6     0.0961824300   -2.3249885200   -0.4143637600        
  C     4    6    -0.0999162700    2.3165082000   -0.4121851900        
  C     5    6     0.1647195800   -2.2935804800    2.1761406600        
  C     6    6    -0.1664282500    2.2827539200    2.1783425000        
  C     7    6    -0.0003478600   -0.0060000600    3.4729811900        
  H     8    1    -1.3686943100   -0.9629193700   -5.3612638600        
  H     9    1     1.3610922200    0.9589205400   -5.3614605700        
  H    10    1     0.2000953300   -4.0515043600   -1.4573602500        
  H    11    1    -0.2046439000    4.0439679500   -1.4535359700        
  H    12    1     0.3293639000   -4.0282185200    3.2076688200        
  H    13    1    -0.3302654900    4.0164569400    3.2115697000        
  H    14    1     0.0004449700   -0.0069186300    5.5013520600        
[5D]
[7F]
[GTO]
  1  0
   s    12 1.00
  0.114200D+05  0.172695D-04
  0.171200D+04  0.134411D-03
  0.389300D+03  0.694561D-03
  0.110000D+03  0.278531D-02
  0.355700D+02  0.863457D-02
  0.125400D+02  0.199805D-01
  0.464400D+01  0.262908D-01
  0.129300D+01 -0.243845D-01
  0.511800D+00 -0.924934D-01
  0.178700D+00 -0.339683D+00
  0.246240D-01  0.345111D+00
  0.112530D-01  0.752750D+00
   s    10 1.00
  0.114200D+05  0.523000D-03
  0.171200D+04  0.404500D-02
  0.389300D+03  0.207750D-01
  0.110000D+03  0.807269D-01
  0.355700D+02  0.233074D+00
  0.125400D+02  0.433501D+00
  0.464400D+01  0.347472D+00
  0.129300D+01  0.412620D-01
  0.511800D+00 -0.850799D-02
  0.178700D+00  0.238400D-02
   s    10 1.00
  0.114200D+05 -0.115000D-03
  0.171200D+04 -0.895000D-03
  0.389300D+03 -0.462400D-02
  0.110000D+03 -0.185280D-01
  0.355700D+02 -0.573390D-01
  0.125400D+02 -0.132076D+00
  0.464400D+01 -0.172510D+00
  0.129300D+01  0.151814D+00
  0.511800D+00  0.599944D+00
  0.178700D+00  0.387462D+00
   s     1 1.00
  0.129300D+01  0.100000D+01
   s     1 1.00
  0.178700D+00  0.100000D+01
   p     5 1.00
  0.266300D+02  0.146700D-01
  0.594800D+01  0.917640D-01
  0.174200D+01  0.298683D+00
  0.555000D+00  0.498487D+00
  0.172500D+00  0.337023D+00
   p     1 1.00
  0.174200D+01  0.100000D+01
   p     1 1.00
  0.555000D+00  0.100000D+01
   d     1 1.00
  0.165400D+01  0.100000D+01
   d     1 1.00
  0.469000D+00  0.100000D+01
   f     1 1.00
  0.109300D+01  0.100000D+01
  
  2  0
   s    10 1.00
  0.823600D+04  0.531000D-03
  0.123500D+04  0.410800D-02
  0.280800D+03  0.210870D-01
  0.792700D+02  0.818530D-01
  0.255900D+02  0.234817D+00
  0.899700D+01  0.434401D+00
  0.331900D+01  0.346129D+00
  0.905900D+00  0.393780D-01
  0.364300D+00 -0.898300D-02
  0.128500D+00  0.238500D-02
   s    10 1.00
  0.823600D+04 -0.113000D-03
  0.123500D+04 -0.878000D-03
  0.280800D+03 -0.454000D-02
  0.792700D+02 -0.181330D-01
  0.255900D+02 -0.557600D-01
  0.899700D+01 -0.126895D+00
  0.331900D+01 -0.170352D+00
  0.905900D+00  0.140382D+00
  0.364300D+00  0.598684D+00
  0.128500D+00  0.395389D+00
   s     1 1.00
  0.905900D+00  0.100000D+01
   s     1 1.00
  0.364300D+00  0.100000D+01
   p     5 1.00
  0.187100D+02  0.140310D-01
  0.413300D+01  0.868660D-01
  0.120000D+01  0.290216D+00
  0.382700D+00  0.501008D+00
  0.120900D+00  0.343406D+00
   p     1 1.00
  0.382700D+00  0.100000D+01
   p     1 1.00
  0.120900D+00  0.100000D+01
   d     1 1.00
  0.109700D+01  0.100000D+01
   d     1 1.00
  0.318000D+00  0.100000D+01
   f     1 1.00
  0.761000D+00  0.100000D+01
  
  3  0
   s    10 1.00
  0.823600D+04  0.531000D-03
  0.123500D+04  0.410800D-02
  0.280800D+03  0.210870D-01
  0.792700D+02  0.818530D-01
  0.255900D+02  0.234817D+00
  0.899700D+01  0.434401D+00
  0.331900D+01  0.346129D+00
  0.905900D+00  0.393780D-01
  0.364300D+00 -0.898300D-02
  0.128500D+00  0.238500D-02
   s    10 1.00
  0.823600D+04 -0.113000D-03
  0.123500D+04 -0.878000D-03
  0.280800D+03 -0.454000D-02
  0.792700D+02 -0.181330D-01
  0.255900D+02 -0.557600D-01
  0.899700D+01 -0.126895D+00
  0.331900D+01 -0.170352D+00
  0.905900D+00  0.140382D+00
  0.364300D+00  0.598684D+00
  0.128500D+00  0.395389D+00
   s     1 1.00
  0.905900D+00  0.100000D+01
   s     1 1.00
  0.364300D+00  0.100000D+01
   p     5 1.00
  0.187100D+02  0.140310D-01
  0.413300D+01  0.868660D-01
  0.120000D+01  0.290216D+00
  0.382700D+00  0.501008D+00
  0.120900D+00  0.343406D+00
   p     1 1.00
  0.382700D+00  0.100000D+01
   p     1 1.00
  0.120900D+00  0.100000D+01
   d     1 1.00
  0.109700D+01  0.100000D+01
   d     1 1.00
  0.318000D+00  0.100000D+01
   f     1 1.00
  0.761000D+00  0.100000D+01
  
  4  0
   s    10 1.00
  0.823600D+04  0.531000D-03
  0.123500D+04  0.410800D-02
  0.280800D+03  0.210870D-01
  0.792700D+02  0.818530D-01
  0.255900D+02  0.234817D+00
  0.899700D+01  0.434401D+00
  0.331900D+01  0.346129D+00
  0.905900D+00  0.393780D-01
  0.364300D+00 -0.898300D-02
  0.128500D+00  0.238500D-02
   s    10 1.00
  0.823600D+04 -0.113000D-03
  0.123500D+04 -0.878000D-03
  0.280800D+03 -0.454000D-02
  0.792700D+02 -0.181330D-01
  0.255900D+02 -0.557600D-01
  0.899700D+01 -0.126895D+00
  0.331900D+01 -0.170352D+00
  0.905900D+00  0.140382D+00
  0.364300D+00  0.598684D+00
  0.128500D+00  0.395389D+00
   s     1 1.00
  0.905900D+00  0.100000D+01
   s     1 1.00
  0.364300D+00  0.100000D+01
   p     5 1.00
  0.187100D+02  0.140310D-01
  0.413300D+01  0.868660D-01
  0.120000D+01  0.290216D+00
  0.382700D+00  0.501008D+00
  0.120900D+00  0.343406D+00
   p     1 1.00
  0.382700D+00  0.100000D+01
   p     1 1.00
  0.120900D+00  0.100000D+01
   d     1 1.00
  0.109700D+01  0.100000D+01
   d     1 1.00
  0.318000D+00  0.100000D+01
   f     1 1.00
  0.761000D+00  0.100000D+01
  
  5  0
   s    10 1.00
  0.823600D+04  0.531000D-03
  0.123500D+04  0.410800D-02
  0.280800D+03  0.210870D-01
  0.792700D+02  0.818530D-01
  0.255900D+02  0.234817D+00
  0.899700D+01  0.434401D+00
  0.331900D+01  0.346129D+00
  0.905900D+00  0.393780D-01
  0.364300D+00 -0.898300D-02
  0.128500D+00  0.238500D-02
   s    10 1.00
  0.823600D+04 -0.113000D-03
  0.123500D+04 -0.878000D-03
  0.280800D+03 -0.454000D-02
  0.792700D+02 -0.181330D-01
  0.255900D+02 -0.557600D-01
  0.899700D+01 -0.126895D+00
  0.331900D+01 -0.170352D+00
  0.905900D+00  0.140382D+00
  0.364300D+00  0.598684D+00
  0.128500D+00  0.395389D+00
   s     1 1.00
  0.905900D+00  0.100000D+01
   s     1 1.00
  0.364300D+00  0.100000D+01
   p     5 1.00
  0.187100D+02  0.140310D-01
  0.413300D+01  0.868660D-01
  0.120000D+01  0.290216D+00
  0.382700D+00  0.501008D+00
  0.120900D+00  0.343406D+00
   p     1 1.00
  0.382700D+00  0.100000D+01
   p     1 1.00
  0.120900D+00  0.100000D+01
   d     1 1.00
  0.109700D+01  0.100000D+01
   d     1 1.00
  0.318000D+00  0.100000D+01
   f     1 1.00
  0.761000D+00  0.100000D+01
  
  6  0
   s    10 1.00
  0.823600D+04  0.531000D-03
  0.123500D+04  0.410800D-02
  0.280800D+03  0.210870D-01
  0.792700D+02  0.818530D-01
  0.255900D+02  0.234817D+00
  0.899700D+01  0.434401D+00
  0.331900D+01  0.346129D+00
  0.905900D+00  0.393780D-01
  0.364300D+00 -0.898300D-02
  0.128500D+00  0.238500D-02
   s    10 1.00
  0.823600D+04 -0.113000D-03
  0.123500D+04 -0.878000D-03
  0.280800D+03 -0.454000D-02
  0.792700D+02 -0.181330D-01
  0.255900D+02 -0.557600D-01
  0.899700D+01 -0.126895D+00
  0.331900D+01 -0.170352D+00
  0.905900D+00  0.140382D+00
  0.364300D+00  0.598684D+00
  0.128500D+00  0.395389D+00
   s     1 1.00
  0.905900D+00  0.100000D+01
   s     1 1.00
  0.364300D+00  0.100000D+01
   p     5 1.00
  0.187100D+02  0.140310D-01
  0.413300D+01  0.868660D-01
  0.120000D+01  0.290216D+00
  0.382700D+00  0.501008D+00
  0.120900D+00  0.343406D+00
   p     1 1.00
  0.382700D+00  0.100000D+01
   p     1 1.00
  0.120900D+00  0.100000D+01
   d     1 1.00
  0.109700D+01  0.100000D+01
   d     1 1.00
  0.318000D+00  0.100000D+01
   f     1 1.00
  0.761000D+00  0.100000D+01
  
  7  0
   s    10 1.00
  0.823600D+04  0.531000D-03
  0.123500D+04  0.410800D-02
  0.280800D+03  0.210870D-01
  0.792700D+02  0.818530D-01
  0.255900D+02  0.234817D+00
  0.899700D+01  0.434401D+00
  0.331900D+01  0.346129D+00
  0.905900D+00  0.393780D-01
  0.364300D+00 -0.898300D-02
  0.128500D+00  0.238500D-02
   s    10 1.00
  0.823600D+04 -0.113000D-03
  0.123500D+04 -0.878000D-03
  0.280800D+03 -0.454000D-02
  0.792700D+02 -0.181330D-01
  0.255900D+02 -0.557600D-01
  0.899700D+01 -0.126895D+00
  0.331900D+01 -0.170352D+00
  0.905900D+00  0.140382D+00
  0.364300D+00  0.598684D+00
  0.128500D+00  0.395389D+00
   s     1 1.00
  0.905900D+00  0.100000D+01
   s     1 1.00
  0.364300D+00  0.100000D+01
   p     5 1.00
  0.187100D+02  0.140310D-01
  0.413300D+01  0.868660D-01
  0.120000D+01  0.290216D+00
  0.382700D+00  0.501008D+00
  0.120900D+00  0.343406D+00
   p     1 1.00
  0.382700D+00  0.100000D+01
   p     1 1.00
  0.120900D+00  0.100000D+01
   d     1 1.00
  0.109700D+01  0.100000D+01
   d     1 1.00
  0.318000D+00  0.100000D+01
   f     1 1.00
  0.761000D+00  0.100000D+01
  
  8  0
   s     4 1.00
  0.130100D+02  0.196850D-01
  0.196200D+01  0.137977D+00
  0.444600D+00  0.478148D+00
  0.122000D+00  0.501240D+00
   s     1 1.00
  0.122000D+00  0.100000D+01
   p     1 1.00
  0.727000D+00  0.100000D+01
  
  9  0
   s     4 1.00
  0.130100D+02  0.196850D-01
  0.196200D+01  0.137977D+00
  0.444600D+00  0.478148D+00
  0.122000D+00  0.501240D+00
   s     1 1.00
  0.122000D+00  0.100000D+01
   p     1 1.00
  0.727000D+00  0.100000D+01
  
 10  0
   s     4 1.00
  0.130100D+02  0.196850D-01
  0.196200D+01  0.137977D+00
  0.444600D+00  0.478148D+00
  0.122000D+00  0.501240D+00
   s     1 1.00
  0.122000D+00  0.100000D+01
   p     1 1.00
  0.727000D+00  0.100000D+01
  
 11  0
   s     4 1.00
  0.130100D+02  0.196850D-01
  0.196200D+01  0.137977D+00
  0.444600D+00  0.478148D+00
  0.122000D+00  0.501240D+00
   s     1 1.00
  0.122000D+00  0.100000D+01
   p     1 1.00
  0.727000D+00  0.100000D+01
  
 12  0
   s     4 1.00
  0.130100D+02  0.196850D-01
  0.196200D+01  0.137977D+00
  0.444600D+00  0.478148D+00
  0.122000D+00  0.501240D+00
   s     1 1.00
  0.122000D+00  0.100000D+01
   p     1 1.00
  0.727000D+00  0.100000D+01
  
 13  0
   s     4 1.00
  0.130100D+02  0.196850D-01
  0.196200D+01  0.137977D+00
  0.444600D+00  0.478148D+00
  0.122000D+00  0.501240D+00
   s     1 1.00
  0.122000D+00  0.100000D+01
   p     1 1.00
  0.727000D+00  0.100000D+01
  
 14  0
   s     4 1.00
  0.130100D+02  0.196850D-01
  0.196200D+01  0.137977D+00
  0.444600D+00  0.478148D+00
  0.122000D+00  0.501240D+00
   s     1 1.00
  0.122000D+00  0.100000D+01
   p     1 1.00
  0.727000D+00  0.100000D+01
  
[MO]
 Sym= __1_a__
 Ene=  0.000000000000000E+000
 Spin= Alpha
 Occup=    2.00000000000000     
                     1  6.033290045831800E-005
                     2  0.997785730231727     
                     3  1.229530887734230E-002
                     4  2.152780195983850E-003
                     5  1.007381337315590E-003
                     6  1.386939306470320E-006
                     7 -1.610059629701420E-006
                     8  3.521987059954940E-003
                     9 -1.064618303515680E-007
                    10  1.282011627230450E-007
                    11 -2.589071473572580E-004
                    12 -1.841704745857240E-007
                    13  1.797807547450170E-007
                    14 -4.649563369104840E-004
                    15  1.790349057581147E-004
                    16  1.622169776341090E-007
                    17 -1.879818999185450E-007
                    18  1.689526811344942E-005
                    19  1.031217644569050E-004
                    20  8.371442544827666E-005
                    21 -1.121221387581390E-007
                    22  1.746941920525500E-007
                    23 -1.580995884347742E-004
                    24 -4.955317541634550E-004
                    25 -1.830224019372241E-004
                    26  1.222508078478294E-007
                    27 -1.623779267694674E-007
                    28  2.374624151444980E-006
                    29 -7.115702396045780E-005
                    30  3.878532825599128E-008
                    31 -3.575867635281571E-008
                    32 -2.317600456433210E-004
                    33  2.856543281179930E-003
                    34  1.091905078991050E-004
                    35 -5.319936857530110E-004
                    36 -2.692340169742170E-006
                    37  3.133201962657620E-006
                    38 -6.875358280454590E-003
                    39 -1.492520096142810E-008
                    40 -2.796295957149070E-008
                    41 -6.586026282278811E-005
                    42  1.514951157966280E-006
                    43 -1.716509385520620E-006
                    44  3.900147467924420E-003
                    45  3.808555379665060E-004
                    46  2.115474410029080E-007
                    47 -3.330916806984940E-007
                    48  1.075159753032270E-004
                    49 -1.039303931786790E-005
                    50  5.697149794863945E-004
                    51  4.432582957283230E-007
                    52 -6.347615239179470E-007
                    53 -1.641354251500622E-005
                    54  1.132296168866020E-004
                    55 -6.581974083954165E-005
                    56  1.763440376433464E-008
                    57 -9.768208711489879E-008
                    58  4.919626555406280E-005
                    59 -2.221321998215900E-005
                    60 -1.133960612920938E-008
                    61 -4.184239220905097E-008
                    62 -1.925131309723060E-004
                    63 -1.724302359287750E-003
                    64  6.853164139661620E-006
                    65  7.775258609493790E-004
                    66 -6.466705087181670E-006
                    67 -8.955007440213490E-004
                    68  1.206046573289540E-003
                    69  5.274974025618960E-005
                    70  8.412555895869950E-005
                    71  2.280635617266540E-004
                    72  4.551365520892250E-005
                    73 -6.032462534900070E-004
                    74 -2.796184688347020E-004
                    75  9.282844030879030E-005
                    76  2.626939104377800E-006
                    77 -1.256106500729860E-005
                    78  3.562953145457460E-005
                    79  6.810777055613130E-007
                    80  4.116084989703060E-005
                    81 -2.233648386967420E-005
                    82  3.163229557719530E-005
                    83  1.018634355147722E-005
                    84  3.273977588218140E-005
                    85 -7.780660320063059E-005
                    86  6.831040999003862E-006
                    87 -8.328753767360583E-006
                    88  2.120507269294980E-005
                    89 -5.726708708758310E-006
                    90  2.186078499386111E-006
                    91  2.216557447480485E-005
                    92 -1.924745313720770E-004
                    93 -1.724147953238710E-003
                    94  7.027126633481980E-006
                    95  7.769750042096100E-004
                    96  7.406723735142060E-006
                    97  8.944289115084930E-004
                    98  1.206967857799340E-003
                    99 -5.254937348683470E-005
                   100 -8.448456875537750E-005
                   101  2.273765229282550E-004
                   102 -4.569073352473840E-005
                   103  6.028903475070080E-004
                   104 -2.788544722986760E-004
                   105  9.281786196537813E-005
                   106 -2.527643793773020E-006
                   107  1.240067640508730E-005
                   108  3.564059465374820E-005
                   109  6.924989904442850E-007
                   110  4.061206652575388E-005
                   111  2.243397543047960E-005
                   112 -3.184784758687440E-005
                   113  1.008126639804532E-005
                   114  3.269076105671430E-005
                   115 -7.776522456812939E-005
                   116 -6.712975777016643E-006
                   117  8.135945505137101E-006
                   118  2.117697182003200E-005
                   119 -5.689202331561310E-006
                   120 -2.200531510284215E-006
                   121 -2.219343485691103E-005
                   122 -1.539772791807800E-004
                   123  3.033568103552310E-005
                   124  8.508908866200310E-005
                   125  2.293812839108810E-004
                   126 -7.149176248688770E-005
                   127  5.205812336525990E-005
                   128 -8.631172425992020E-004
                   129 -3.051760142353930E-006
                   130  1.891321848056240E-005
                   131  2.377447678620170E-004
                   132  1.684641827665710E-005
                   133 -5.038780130087030E-005
                   134  5.836804877792140E-004
                   135 -3.641604876183469E-006
                   136  2.084823564525380E-006
                   137  5.496009006811940E-006
                   138 -1.045711534019396E-006
                   139  1.724798713841220E-006
                   140 -1.399875922581145E-004
                   141 -1.417199189055540E-005
                   142  1.097847898562620E-004
                   143  3.105417468912240E-005
                   144 -6.915373617330650E-006
                   145 -2.696367934479217E-005
                   146 -5.713082604562369E-007
                   147 -4.776088076416092E-006
                   148 -8.209875361831940E-006
                   149 -1.529158507470970E-006
                   150 -9.590599711542134E-007
                   151 -2.502668002808959E-006
                   152 -1.544844988836170E-004
                   153  2.853642147018450E-005
                   154  8.456114575158281E-005
                   155  2.326557199097410E-004
                   156  7.080502293336279E-005
                   157 -5.121075869776410E-005
                   158 -8.631889885820710E-004
                   159  3.294203311620830E-006
                   160 -1.954874888919560E-005
                   161  2.373771096433150E-004
                   162 -1.644111373576820E-005
                   163  5.042650097871090E-005
                   164  5.839286775095470E-004
                   165 -3.590509958676241E-006
                   166 -2.090107980732940E-006
                   167 -5.500822991389000E-006
                   168 -1.109141068896522E-006
                   169  1.712759291009290E-006
                   170 -1.400502134878653E-004
                   171  1.395971169815500E-005
                   172 -1.098707310402230E-004
                   173  3.090587560141380E-005
                   174 -7.017314169106870E-006
                   175 -2.687856162929468E-005
                   176  6.354606831775934E-007
                   177  4.736241090401041E-006
                   178 -8.255709450704801E-006
                   179 -1.534411635237790E-006
                   180  9.699433910027331E-007
                   181  2.521547427027443E-006
                   182 -1.298982301472550E-004
                   183 -3.535377932447070E-004
                   184  2.492883066148410E-005
                   185  2.308823678068840E-004
                   186 -2.725900482786880E-008
                   187  1.170527587594950E-007
                   188 -4.345425190780160E-005
                   189  4.563313595482680E-008
                   190 -5.038707762871050E-007
                   191  1.049673557287210E-005
                   192 -3.681433378636140E-009
                   193 -3.998912323116350E-008
                   194 -2.645149495307740E-005
                   195  2.109515660003195E-005
                   196  9.781137495407530E-009
                   197  6.306082883143090E-009
                   198  7.867456044391699E-006
                   199  2.152333901222210E-006
                   200  3.461970837387875E-005
                   201 -3.001427414361780E-009
                   202  2.044376647004050E-007
                   203  2.472499421135420E-005
                   204 -1.507351320455960E-006
                   205 -1.141384768295360E-005
                   206  1.122035793804682E-008
                   207 -2.376798605100463E-008
                   208  3.014957169566300E-006
                   209  1.855451105751450E-006
                   210  3.996608011556387E-009
                   211  2.966596183319121E-008
                   212  5.661991669753210E-003
                   213 -3.143778233563690E-003
                   214  5.063349476990910E-004
                   215  3.403842847631740E-004
                   216  4.218329385611210E-004
                   217  5.661957759354210E-003
                   218 -3.143765152042770E-003
                   219 -5.060016457225980E-004
                   220 -3.407670470323940E-004
                   221  4.219184189723730E-004
                   222 -6.909331042237831E-004
                   223 -1.791659374831260E-004
                   224  4.358406366564880E-006
                   225 -3.691227728112600E-005
                   226 -4.439522360305090E-005
                   227 -6.910031419150040E-004
                   228 -1.787675626793250E-004
                   229 -4.392765902479550E-006
                   230  3.693281070674140E-005
                   231 -4.438667318899980E-005
                   232 -2.709577031131080E-004
                   233 -2.605385691728290E-004
                   234 -2.966357985428150E-006
                   235 -1.316497853750120E-005
                   236  4.663896995363550E-009
                   237 -2.710033683817250E-004
                   238 -2.607021696793950E-004
                   239  2.961425142431280E-006
                   240  1.321421619910050E-005
                   241  6.700999515974520E-008
                   242  1.031177164245120E-004
                   243 -4.477154273106610E-005
                   244  6.414541414690100E-009
                   245 -3.087376771513910E-008
                   246  1.423659047220930E-005
 Sym= __2_a__
 Ene=  0.000000000000000E+000
 Spin= Alpha
 Occup=    2.00000000000000     
                     1 -1.862070188666420E-005
                     2 -9.072084288747340E-005
                     3  1.975178948033590E-003
                     4  4.649078862637250E-005
                     5  1.161398708005100E-003
                     6  8.543656972920370E-007
                     7 -9.968693140024350E-007
                     8  2.206326753296330E-003
                     9 -3.564344494364180E-008
                    10  4.298816441687080E-008
                    11 -9.974166860851659E-005
                    12 -3.426921283007720E-008
                    13  4.845300017472580E-008
                    14 -9.702247112224540E-005
                    15  5.420024327198335E-005
                    16  1.772604279344930E-008
                    17 -4.071755678326320E-008
                    18  1.855651167623250E-005
                    19 -2.494571035897280E-005
                    20 -1.229393865973651E-004
                    21 -1.781083232448050E-009
                    22  8.598880507411609E-008
                    23 -7.180945693287200E-005
                    24  1.130518251298820E-004
                    25  1.949655775857449E-004
                    26 -1.770055827215804E-007
                    27  2.650084809399058E-007
                    28 -4.590846909764180E-005
                    29 -2.760716022983290E-005
                    30  3.727041387414124E-008
                    31  1.269318749294577E-008
                    32   1.00102321737198     
                    33  8.959671939514540E-003
                    34  2.625107659181360E-003
                    35 -7.943265272060801E-003
                    36 -1.287100858027820E-006
                    37  1.484299681525560E-006
                    38 -3.291467597738460E-003
                    39  4.960170104353970E-007
                    40 -5.704004617426661E-007
                    41  1.271802469083290E-003
                    42  1.476826482470810E-006
                    43 -1.772347926691560E-006
                    44  3.760255888902370E-003
                    45  3.065252116927765E-004
                    46  3.658207423753040E-007
                    47 -6.300532975772720E-008
                    48 -4.012470889314560E-004
                    49  3.378289462035370E-006
                    50  4.036764646567619E-004
                    51 -4.633332729472010E-008
                    52 -6.982564348380880E-007
                    53  8.536317710780420E-004
                    54  2.811152669717650E-005
                    55  3.082034320714720E-004
                    56 -1.793236549462414E-007
                    57  4.691793971627083E-007
                    58 -1.818171921326178E-004
                    59  5.589354337996530E-006
                    60  8.412663019860677E-008
                    61  1.053121194733097E-007
                    62  1.166943138488250E-002
                    63 -1.843343816375880E-003
                    64 -2.780419419706250E-004
                    65  2.954955152870460E-003
                    66 -4.083006604723420E-006
                    67  2.226452306668490E-004
                    68 -1.025439311343950E-004
                    69 -3.108094290489570E-005
                    70  5.045779872882100E-004
                    71  7.506270033385300E-005
                    72  1.059551439484210E-004
                    73 -1.880864925091660E-003
                    74  1.219015859695830E-004
                    75 -2.325210774335938E-005
                    76  1.975272242371570E-006
                    77  2.127291515484690E-005
                    78  2.576424192868900E-005
                    79  2.426946107108240E-006
                    80  7.964783273120656E-004
                    81  3.952310954276610E-005
                    82 -4.535981579854420E-004
                    83 -1.048559212645472E-005
                    84 -1.665845933486000E-005
                    85  5.305603620567138E-005
                    86 -6.367328770575596E-008
                    87  3.226076635565466E-005
                    88 -1.099264243672028E-004
                    89 -3.070923711479580E-006
                    90  6.226051764364815E-006
                    91  5.247220081211286E-005
                    92  1.166940169708630E-002
                    93 -1.843424590589820E-003
                    94 -2.780896797992570E-004
                    95  2.955159011741210E-003
                    96  4.003306537793500E-006
                    97 -2.225541617404480E-004
                    98 -1.027762097257130E-004
                    99  3.113511758245710E-005
                   100 -5.046368857191380E-004
                   101  7.473178412967220E-005
                   102 -1.058702699567890E-004
                   103  1.880901354657100E-003
                   104  1.235309781548600E-004
                   105 -2.326853386602389E-005
                   106 -2.025126195190330E-006
                   107 -2.126801015079810E-005
                   108  2.574199742353920E-005
                   109  2.412382548892250E-006
                   110  7.973237307760790E-004
                   111 -3.845605802682030E-005
                   112  4.524195156718240E-004
                   113 -1.008310192128118E-005
                   114 -1.626780125226630E-005
                   115  5.311114325589405E-005
                   116  9.258881634825131E-008
                   117 -3.198025270114788E-005
                   118 -1.100341098573010E-004
                   119 -3.067084655447370E-006
                   120 -6.116978966752267E-006
                   121 -5.235232250096796E-005
                   122 -1.557182096516110E-004
                   123 -7.505285332631990E-004
                   124  2.296754902949110E-004
                   125 -1.936764522895360E-004
                   126 -1.101019584568130E-005
                   127 -4.097371209715410E-005
                   128 -2.010198490444180E-004
                   129  2.368260080927150E-005
                   130  4.073750102148160E-005
                   131  5.654286431965150E-004
                   132 -1.388630955901610E-005
                   133  3.156240493270730E-004
                   134  6.483455998923360E-004
                   135 -2.248831409844077E-005
                   136 -4.219276671110750E-006
                   137  4.875839528167330E-005
                   138  1.573299816204150E-005
                   139  4.792611713465830E-006
                   140 -3.076082720166941E-004
                   141 -5.529734363145040E-006
                   142 -2.607194263861030E-004
                   143 -2.956618839731180E-005
                   144 -2.515304671674620E-005
                   145 -6.503315403530191E-006
                   146  6.033517729782057E-006
                   147 -2.592456852393380E-005
                   148 -2.887228253262320E-005
                   149 -5.040570638286820E-006
                   150  3.135449782907164E-007
                   151 -7.552936682007539E-006
                   152 -1.554255018567320E-004
                   153 -7.495587243268410E-004
                   154  2.297644319350270E-004
                   155 -1.947864888801220E-004
                   156  1.085496684907670E-005
                   157  4.114235209601330E-005
                   158 -2.009954857298710E-004
                   159 -2.325095484039900E-005
                   160 -4.117752066514500E-005