[Molden Format]
[Atoms] AU
  N     1    7    -0.0799068400   -4.3361656000    0.0000000000        
  C     2    6     0.0331449500   -1.8333115900    0.0000000000        
  C     3    6    -2.3043615000   -0.4326654700    0.0000000000        
  C     4    6     2.3469444500   -0.3980806600    0.0000000000        
  C     5    6    -2.2833202800    2.1482203200    0.0000000000        
  C     6    6     2.2987900500    2.1817579500    0.0000000000        
  C     7    6    -0.0023937800    3.4855781900    0.0000000000        
  H     8    1    -2.7058890300   -5.8348795700    0.0000000000        
  H     9    1     1.6877938200   -5.1396842800    0.0000000000        
  H    10    1    -4.0342277100   -1.4788416000    0.0000000000        
  H    11    1     4.1099952300   -1.4006324100    0.0000000000        
  H    12    1    -4.0366905400    3.1694994900    0.0000000000        
  H    13    1     4.0385966600    3.2259657800    0.0000000000        
  H    14    1    -0.0154739100    5.5129679200    0.0000000000        
[5D]
[7F]
[GTO]
  1  0
   s    12 1.00
  0.114200D+05  0.172695D-04
  0.171200D+04  0.134411D-03
  0.389300D+03  0.694561D-03
  0.110000D+03  0.278531D-02
  0.355700D+02  0.863457D-02
  0.125400D+02  0.199805D-01
  0.464400D+01  0.262908D-01
  0.129300D+01 -0.243845D-01
  0.511800D+00 -0.924934D-01
  0.178700D+00 -0.339683D+00
  0.246240D-01  0.345111D+00
  0.112530D-01  0.752750D+00
   s    10 1.00
  0.114200D+05  0.523000D-03
  0.171200D+04  0.404500D-02
  0.389300D+03  0.207750D-01
  0.110000D+03  0.807269D-01
  0.355700D+02  0.233074D+00
  0.125400D+02  0.433501D+00
  0.464400D+01  0.347472D+00
  0.129300D+01  0.412620D-01
  0.511800D+00 -0.850799D-02
  0.178700D+00  0.238400D-02
   s    10 1.00
  0.114200D+05 -0.115000D-03
  0.171200D+04 -0.895000D-03
  0.389300D+03 -0.462400D-02
  0.110000D+03 -0.185280D-01
  0.355700D+02 -0.573390D-01
  0.125400D+02 -0.132076D+00
  0.464400D+01 -0.172510D+00
  0.129300D+01  0.151814D+00
  0.511800D+00  0.599944D+00
  0.178700D+00  0.387462D+00
   s     1 1.00
  0.129300D+01  0.100000D+01
   s     1 1.00
  0.178700D+00  0.100000D+01
   p     5 1.00
  0.266300D+02  0.146700D-01
  0.594800D+01  0.917640D-01
  0.174200D+01  0.298683D+00
  0.555000D+00  0.498487D+00
  0.172500D+00  0.337023D+00
   p     1 1.00
  0.174200D+01  0.100000D+01
   p     1 1.00
  0.555000D+00  0.100000D+01
   d     1 1.00
  0.165400D+01  0.100000D+01
   d     1 1.00
  0.469000D+00  0.100000D+01
   f     1 1.00
  0.109300D+01  0.100000D+01
  
  2  0
   s    10 1.00
  0.823600D+04  0.531000D-03
  0.123500D+04  0.410800D-02
  0.280800D+03  0.210870D-01
  0.792700D+02  0.818530D-01
  0.255900D+02  0.234817D+00
  0.899700D+01  0.434401D+00
  0.331900D+01  0.346129D+00
  0.905900D+00  0.393780D-01
  0.364300D+00 -0.898300D-02
  0.128500D+00  0.238500D-02
   s    10 1.00
  0.823600D+04 -0.113000D-03
  0.123500D+04 -0.878000D-03
  0.280800D+03 -0.454000D-02
  0.792700D+02 -0.181330D-01
  0.255900D+02 -0.557600D-01
  0.899700D+01 -0.126895D+00
  0.331900D+01 -0.170352D+00
  0.905900D+00  0.140382D+00
  0.364300D+00  0.598684D+00
  0.128500D+00  0.395389D+00
   s     1 1.00
  0.905900D+00  0.100000D+01
   s     1 1.00
  0.364300D+00  0.100000D+01
   p     5 1.00
  0.187100D+02  0.140310D-01
  0.413300D+01  0.868660D-01
  0.120000D+01  0.290216D+00
  0.382700D+00  0.501008D+00
  0.120900D+00  0.343406D+00
   p     1 1.00
  0.382700D+00  0.100000D+01
   p     1 1.00
  0.120900D+00  0.100000D+01
   d     1 1.00
  0.109700D+01  0.100000D+01
   d     1 1.00
  0.318000D+00  0.100000D+01
   f     1 1.00
  0.761000D+00  0.100000D+01
  
  3  0
   s    10 1.00
  0.823600D+04  0.531000D-03
  0.123500D+04  0.410800D-02
  0.280800D+03  0.210870D-01
  0.792700D+02  0.818530D-01
  0.255900D+02  0.234817D+00
  0.899700D+01  0.434401D+00
  0.331900D+01  0.346129D+00
  0.905900D+00  0.393780D-01
  0.364300D+00 -0.898300D-02
  0.128500D+00  0.238500D-02
   s    10 1.00
  0.823600D+04 -0.113000D-03
  0.123500D+04 -0.878000D-03
  0.280800D+03 -0.454000D-02
  0.792700D+02 -0.181330D-01
  0.255900D+02 -0.557600D-01
  0.899700D+01 -0.126895D+00
  0.331900D+01 -0.170352D+00
  0.905900D+00  0.140382D+00
  0.364300D+00  0.598684D+00
  0.128500D+00  0.395389D+00
   s     1 1.00
  0.905900D+00  0.100000D+01
   s     1 1.00
  0.364300D+00  0.100000D+01
   p     5 1.00
  0.187100D+02  0.140310D-01
  0.413300D+01  0.868660D-01
  0.120000D+01  0.290216D+00
  0.382700D+00  0.501008D+00
  0.120900D+00  0.343406D+00
   p     1 1.00
  0.382700D+00  0.100000D+01
   p     1 1.00
  0.120900D+00  0.100000D+01
   d     1 1.00
  0.109700D+01  0.100000D+01
   d     1 1.00
  0.318000D+00  0.100000D+01
   f     1 1.00
  0.761000D+00  0.100000D+01
  
  4  0
   s    10 1.00
  0.823600D+04  0.531000D-03
  0.123500D+04  0.410800D-02
  0.280800D+03  0.210870D-01
  0.792700D+02  0.818530D-01
  0.255900D+02  0.234817D+00
  0.899700D+01  0.434401D+00
  0.331900D+01  0.346129D+00
  0.905900D+00  0.393780D-01
  0.364300D+00 -0.898300D-02
  0.128500D+00  0.238500D-02
   s    10 1.00
  0.823600D+04 -0.113000D-03
  0.123500D+04 -0.878000D-03
  0.280800D+03 -0.454000D-02
  0.792700D+02 -0.181330D-01
  0.255900D+02 -0.557600D-01
  0.899700D+01 -0.126895D+00
  0.331900D+01 -0.170352D+00
  0.905900D+00  0.140382D+00
  0.364300D+00  0.598684D+00
  0.128500D+00  0.395389D+00
   s     1 1.00
  0.905900D+00  0.100000D+01
   s     1 1.00
  0.364300D+00  0.100000D+01
   p     5 1.00
  0.187100D+02  0.140310D-01
  0.413300D+01  0.868660D-01
  0.120000D+01  0.290216D+00
  0.382700D+00  0.501008D+00
  0.120900D+00  0.343406D+00
   p     1 1.00
  0.382700D+00  0.100000D+01
   p     1 1.00
  0.120900D+00  0.100000D+01
   d     1 1.00
  0.109700D+01  0.100000D+01
   d     1 1.00
  0.318000D+00  0.100000D+01
   f     1 1.00
  0.761000D+00  0.100000D+01
  
  5  0
   s    10 1.00
  0.823600D+04  0.531000D-03
  0.123500D+04  0.410800D-02
  0.280800D+03  0.210870D-01
  0.792700D+02  0.818530D-01
  0.255900D+02  0.234817D+00
  0.899700D+01  0.434401D+00
  0.331900D+01  0.346129D+00
  0.905900D+00  0.393780D-01
  0.364300D+00 -0.898300D-02
  0.128500D+00  0.238500D-02
   s    10 1.00
  0.823600D+04 -0.113000D-03
  0.123500D+04 -0.878000D-03
  0.280800D+03 -0.454000D-02
  0.792700D+02 -0.181330D-01
  0.255900D+02 -0.557600D-01
  0.899700D+01 -0.126895D+00
  0.331900D+01 -0.170352D+00
  0.905900D+00  0.140382D+00
  0.364300D+00  0.598684D+00
  0.128500D+00  0.395389D+00
   s     1 1.00
  0.905900D+00  0.100000D+01
   s     1 1.00
  0.364300D+00  0.100000D+01
   p     5 1.00
  0.187100D+02  0.140310D-01
  0.413300D+01  0.868660D-01
  0.120000D+01  0.290216D+00
  0.382700D+00  0.501008D+00
  0.120900D+00  0.343406D+00
   p     1 1.00
  0.382700D+00  0.100000D+01
   p     1 1.00
  0.120900D+00  0.100000D+01
   d     1 1.00
  0.109700D+01  0.100000D+01
   d     1 1.00
  0.318000D+00  0.100000D+01
   f     1 1.00
  0.761000D+00  0.100000D+01
  
  6  0
   s    10 1.00
  0.823600D+04  0.531000D-03
  0.123500D+04  0.410800D-02
  0.280800D+03  0.210870D-01
  0.792700D+02  0.818530D-01
  0.255900D+02  0.234817D+00
  0.899700D+01  0.434401D+00
  0.331900D+01  0.346129D+00
  0.905900D+00  0.393780D-01
  0.364300D+00 -0.898300D-02
  0.128500D+00  0.238500D-02
   s    10 1.00
  0.823600D+04 -0.113000D-03
  0.123500D+04 -0.878000D-03
  0.280800D+03 -0.454000D-02
  0.792700D+02 -0.181330D-01
  0.255900D+02 -0.557600D-01
  0.899700D+01 -0.126895D+00
  0.331900D+01 -0.170352D+00
  0.905900D+00  0.140382D+00
  0.364300D+00  0.598684D+00
  0.128500D+00  0.395389D+00
   s     1 1.00
  0.905900D+00  0.100000D+01
   s     1 1.00
  0.364300D+00  0.100000D+01
   p     5 1.00
  0.187100D+02  0.140310D-01
  0.413300D+01  0.868660D-01
  0.120000D+01  0.290216D+00
  0.382700D+00  0.501008D+00
  0.120900D+00  0.343406D+00
   p     1 1.00
  0.382700D+00  0.100000D+01
   p     1 1.00
  0.120900D+00  0.100000D+01
   d     1 1.00
  0.109700D+01  0.100000D+01
   d     1 1.00
  0.318000D+00  0.100000D+01
   f     1 1.00
  0.761000D+00  0.100000D+01
  
  7  0
   s    10 1.00
  0.823600D+04  0.531000D-03
  0.123500D+04  0.410800D-02
  0.280800D+03  0.210870D-01
  0.792700D+02  0.818530D-01
  0.255900D+02  0.234817D+00
  0.899700D+01  0.434401D+00
  0.331900D+01  0.346129D+00
  0.905900D+00  0.393780D-01
  0.364300D+00 -0.898300D-02
  0.128500D+00  0.238500D-02
   s    10 1.00
  0.823600D+04 -0.113000D-03
  0.123500D+04 -0.878000D-03
  0.280800D+03 -0.454000D-02
  0.792700D+02 -0.181330D-01
  0.255900D+02 -0.557600D-01
  0.899700D+01 -0.126895D+00
  0.331900D+01 -0.170352D+00
  0.905900D+00  0.140382D+00
  0.364300D+00  0.598684D+00
  0.128500D+00  0.395389D+00
   s     1 1.00
  0.905900D+00  0.100000D+01
   s     1 1.00
  0.364300D+00  0.100000D+01
   p     5 1.00
  0.187100D+02  0.140310D-01
  0.413300D+01  0.868660D-01
  0.120000D+01  0.290216D+00
  0.382700D+00  0.501008D+00
  0.120900D+00  0.343406D+00
   p     1 1.00
  0.382700D+00  0.100000D+01
   p     1 1.00
  0.120900D+00  0.100000D+01
   d     1 1.00
  0.109700D+01  0.100000D+01
   d     1 1.00
  0.318000D+00  0.100000D+01
   f     1 1.00
  0.761000D+00  0.100000D+01
  
  8  0
   s     4 1.00
  0.130100D+02  0.196850D-01
  0.196200D+01  0.137977D+00
  0.444600D+00  0.478148D+00
  0.122000D+00  0.501240D+00
   s     1 1.00
  0.122000D+00  0.100000D+01
   p     1 1.00
  0.727000D+00  0.100000D+01
  
  9  0
   s     4 1.00
  0.130100D+02  0.196850D-01
  0.196200D+01  0.137977D+00
  0.444600D+00  0.478148D+00
  0.122000D+00  0.501240D+00
   s     1 1.00
  0.122000D+00  0.100000D+01
   p     1 1.00
  0.727000D+00  0.100000D+01
  
 10  0
   s     4 1.00
  0.130100D+02  0.196850D-01
  0.196200D+01  0.137977D+00
  0.444600D+00  0.478148D+00
  0.122000D+00  0.501240D+00
   s     1 1.00
  0.122000D+00  0.100000D+01
   p     1 1.00
  0.727000D+00  0.100000D+01
  
 11  0
   s     4 1.00
  0.130100D+02  0.196850D-01
  0.196200D+01  0.137977D+00
  0.444600D+00  0.478148D+00
  0.122000D+00  0.501240D+00
   s     1 1.00
  0.122000D+00  0.100000D+01
   p     1 1.00
  0.727000D+00  0.100000D+01
  
 12  0
   s     4 1.00
  0.130100D+02  0.196850D-01
  0.196200D+01  0.137977D+00
  0.444600D+00  0.478148D+00
  0.122000D+00  0.501240D+00
   s     1 1.00
  0.122000D+00  0.100000D+01
   p     1 1.00
  0.727000D+00  0.100000D+01
  
 13  0
   s     4 1.00
  0.130100D+02  0.196850D-01
  0.196200D+01  0.137977D+00
  0.444600D+00  0.478148D+00
  0.122000D+00  0.501240D+00
   s     1 1.00
  0.122000D+00  0.100000D+01
   p     1 1.00
  0.727000D+00  0.100000D+01
  
 14  0
   s     4 1.00
  0.130100D+02  0.196850D-01
  0.196200D+01  0.137977D+00
  0.444600D+00  0.478148D+00
  0.122000D+00  0.501240D+00
   s     1 1.00
  0.122000D+00  0.100000D+01
   p     1 1.00
  0.727000D+00  0.100000D+01
  
[MO]
 Sym= __1_A'_
 Ene=   1.00000000000000     
 Spin= Alpha
 Occup=    1.00000000000000     
                     1  6.720899201269962E-005
                     2  0.998374528710432     
                     3  3.064935847505018E-003
                     4  1.710232416170739E-003
                     5  4.788429344067861E-003
                     6  3.404236915138599E-003
                     7  6.359142321375751E-003
                     8  0.000000000000000E+000
                     9 -5.981102349055974E-004
                    10 -5.508772547750204E-004
                    11  0.000000000000000E+000
                    12 -2.312225912611070E-003
                    13 -1.493552430060961E-003
                    14  0.000000000000000E+000
                    15 -1.340987372954227E-004
                    16  0.000000000000000E+000
                    17  0.000000000000000E+000
                    18 -1.865770720044428E-004
                    19 -6.250018781042220E-005
                    20  1.476053051549021E-004
                    21  0.000000000000000E+000
                    22  0.000000000000000E+000
                    23 -3.706961153616004E-004
                    24  4.880828204011164E-004
                    25  0.000000000000000E+000
                    26 -1.362674189805075E-005
                    27 -6.655636704871869E-005
                    28  0.000000000000000E+000
                    29  0.000000000000000E+000
                    30  3.217564438188572E-005
                    31 -1.504820722242967E-004
                    32 -3.729613279703097E-004
                    33  1.555166337384054E-003
                    34  3.123681672305682E-004
                    35 -4.410023154118141E-004
                    36 -2.872327091788964E-004
                    37 -5.254908430788403E-003
                    38  0.000000000000000E+000
                    39  4.227563708055356E-004
                    40  5.235768653804548E-004
                    41  0.000000000000000E+000
                    42 -2.001514412936802E-003
                    43  5.446182783382041E-003
                    44  0.000000000000000E+000
                    45 -1.592906199655612E-005
                    46  0.000000000000000E+000
                    47  0.000000000000000E+000
                    48 -2.366140284846940E-004
                    49 -1.280710230568571E-005
                    50 -2.734453530474201E-004
                    51  0.000000000000000E+000
                    52  0.000000000000000E+000
                    53  7.198476219873736E-005
                    54  7.361438333257575E-004
                    55  0.000000000000000E+000
                    56 -1.327369038319794E-005
                    57 -5.379826738884792E-005
                    58  0.000000000000000E+000
                    59  0.000000000000000E+000
                    60  4.237298078672172E-005
                    61 -1.269748241758138E-004
                    62 -4.537705394440386E-004
                    63 -2.192797262377763E-003
                    64 -8.360490323126643E-005
                    65  1.945946851670599E-003
                    66 -7.095545377409641E-004
                    67  5.466494730124346E-004
                    68  0.000000000000000E+000
                    69  3.693161599609912E-004
                    70  8.407140548902238E-004
                    71  0.000000000000000E+000
                    72 -1.886687994742125E-003
                    73  8.509201657055317E-004
                    74  0.000000000000000E+000
                    75 -3.856608429376077E-005
                    76  0.000000000000000E+000
                    77  0.000000000000000E+000
                    78 -7.812021088563153E-005
                    79 -2.481261947039155E-005
                    80 -1.208678561448519E-004
                    81  0.000000000000000E+000
                    82  0.000000000000000E+000
                    83  1.190693463088604E-005
                    84  9.952968491762739E-005
                    85  0.000000000000000E+000
                    86  1.338323328188594E-005
                    87 -5.051462641795773E-005
                    88  0.000000000000000E+000
                    89  0.000000000000000E+000
                    90 -2.657289393642158E-005
                    91 -1.467890276102103E-004
                    92 -1.789898010347983E-004
                    93 -1.270159946653159E-003
                    94  2.035917404183625E-004
                    95 -1.529519288025548E-004
                    96  6.223889869673531E-004
                    97  7.667577791104518E-004
                    98  0.000000000000000E+000
                    99  3.876389001696153E-004
                   100  3.749283908617680E-004
                   101  0.000000000000000E+000
                   102  4.548676967914639E-004
                   103 -1.604754800260156E-003
                   104  0.000000000000000E+000
                   105  4.222021099981830E-007
                   106  0.000000000000000E+000
                   107  0.000000000000000E+000
                   108 -8.407380804840308E-005
                   109 -1.882553373429513E-005
                   110  9.330677216459152E-005
                   111  0.000000000000000E+000
                   112  0.000000000000000E+000
                   113 -1.403988318531428E-004
                   114 -4.544009216645562E-005
                   115  0.000000000000000E+000
                   116 -2.687914292011555E-005
                   117 -2.716799660280719E-005
                   118  0.000000000000000E+000
                   119  0.000000000000000E+000
                   120 -1.724229551939020E-005
                   121 -3.113132146976238E-005
                   122 -2.527801983740110E-004
                   123 -4.734833621134382E-004
                   124  1.728077427117390E-004
                   125  2.917125053513465E-004
                   126 -1.290705665632188E-005
                   127 -5.936882781913668E-004
                   128  0.000000000000000E+000
                   129  1.824414051948347E-004
                   130  6.416545412365399E-004
                   131  0.000000000000000E+000
                   132  5.617201506728779E-004
                   133  2.011895062886035E-003
                   134  0.000000000000000E+000
                   135  1.487367958373825E-005
                   136  0.000000000000000E+000
                   137  0.000000000000000E+000
                   138  3.905163776240494E-005
                   139  1.969883859809333E-006
                   140  1.786631805876392E-004
                   141  0.000000000000000E+000
                   142  0.000000000000000E+000
                   143  3.720236239364188E-004
                   144  2.335155660856725E-004
                   145  0.000000000000000E+000
                   146 -9.433951694303900E-006
                   147 -5.886627811617706E-005
                   148  0.000000000000000E+000
                   149  0.000000000000000E+000
                   150 -1.394946930899451E-005
                   151 -4.392799043719193E-005
                   152 -1.625913786908701E-004
                   153 -1.796151994446552E-004
                   154  5.766738441347565E-005
                   155  2.690222688011498E-004
                   156 -2.841402792241860E-005
                   157 -5.353826880930887E-004
                   158  0.000000000000000E+000
                   159  3.740520402813081E-005
                   160  6.283931985542806E-005
                   161  0.000000000000000E+000
                   162  7.879241319869040E-004
                   163 -2.865144899937933E-004
                   164  0.000000000000000E+000
                   165 -1.420466672791856E-006
                   166  0.000000000000000E+000
                   167  0.000000000000000E+000
                   168 -6.212446061332966E-006
                   169  8.801257830002357E-007
                   170  9.131433092781758E-005
                   171  0.000000000000000E+000
                   172  0.000000000000000E+000
                   173  2.575945494234690E-005
                   174 -2.469345195323430E-005
                   175  0.000000000000000E+000
                   176  9.010921589892749E-007
                   177 -1.067109363269825E-005
                   178  0.000000000000000E+000
                   179  0.000000000000000E+000
                   180 -1.313829041844576E-005
                   181 -1.937170618111066E-005
                   182 -1.647458352182366E-004
                   183 -4.782271590955305E-004
                   184  4.031673854740332E-005
                   185  2.385443374670750E-004
                   186 -4.457380835694172E-005
                   187 -4.744755186343002E-005
                   188  0.000000000000000E+000
                   189  2.415178140161315E-004
                   190  7.538554733624566E-005
                   191  0.000000000000000E+000
                   192  1.329461119940702E-003
                   193 -1.932116836304833E-004
                   194  0.000000000000000E+000
                   195  6.105450850102804E-007
                   196  0.000000000000000E+000
                   197  0.000000000000000E+000
                   198 -1.237339505876760E-005
                   199  3.077514850040131E-006
                   200 -5.099642824197925E-006
                   201  0.000000000000000E+000
                   202  0.000000000000000E+000
                   203 -8.099152937042493E-005
                   204 -1.878099352880472E-004
                   205  0.000000000000000E+000
                   206 -8.554137418202353E-006
                   207 -4.669118753714114E-006
                   208  0.000000000000000E+000
                   209  0.000000000000000E+000
                   210  6.710967588641920E-006
                   211 -8.296375383380902E-006
                   212  8.898852471241701E-005
                   213  2.231890979407522E-005
                   214  1.455280986334743E-004
                   215  1.389207412779794E-004
                   216  0.000000000000000E+000
                   217  1.748895828081785E-003
                   218 -1.710827530002622E-003
                   219 -4.415938606560707E-004
                   220  2.104280196777757E-004
                   221  0.000000000000000E+000
                   222 -4.594813441939004E-004
                   223 -6.907806472691065E-004
                   224 -6.255195849767380E-006
                   225 -6.097990804336379E-005
                   226  0.000000000000000E+000
                   227 -3.232117665175557E-004
                   228 -4.319634439549373E-004
                   229 -1.405451635483832E-005
                   230 -2.381187262563038E-005
                   231  0.000000000000000E+000
                   232 -1.111817307771148E-004
                   233 -4.548698092832816E-004
                   234  3.737595340169739E-007
                   235  1.191009555129517E-006
                   236  0.000000000000000E+000
                   237 -1.702384326078486E-004
                   238 -4.227406014278003E-004
                   239  3.452283318110793E-006
                   240 -7.900840165136412E-007
                   241  0.000000000000000E+000
                   242  9.408772749507626E-006
                   243  1.335056189253137E-006
                   244 -6.409297942378433E-008
                   245  2.614088979642714E-005
                   246  0.000000000000000E+000
 Sym= __2_A'_
 Ene=   2.00000000000000     
 Spin= Alpha
 Occup=    1.00000000000000     
                     1 -4.983897353550370E-005
                     2 -3.150440566285560E-004
                     3  2.590939330952178E-003
                     4  1.462324064155971E-004
                     5  1.421826328789802E-003
                     6 -3.391635043282411E-004
                     7  3.091694029523928E-003
                     8  0.000000000000000E+000
                     9 -2.881845186912337E-005
                    10 -1.097996097321469E-004
                    11  0.000000000000000E+000
                    12  3.416585402978253E-006
                    13 -4.437445800347765E-004
                    14  0.000000000000000E+000
                    15  3.835131138491771E-005
                    16  0.000000000000000E+000
                    17  0.000000000000000E+000
                    18 -4.834273989710176E-005
                    19  1.813447734081901E-005
                    20 -1.265985937825557E-004
                    21  0.000000000000000E+000
                    22  0.000000000000000E+000
                    23  1.781502881385989E-004
                    24 -1.254330055514030E-004
                    25  0.000000000000000E+000
                    26 -1.744828941224308E-005
                    27  9.322585677878383E-005
                    28  0.000000000000000E+000
                    29  0.000000000000000E+000
                    30 -5.948888066829385E-005
                    31  1.345398424243005E-004
                    32   1.00100251532268     
                    33  9.324749808782782E-003
                    34  2.706656105354708E-003
                    35 -8.011939389823503E-003
                    36 -7.212242867693411E-006
                    37 -3.394091464584145E-003
                    38  0.000000000000000E+000
                    39 -1.976552922654943E-004
                    40  1.704286001308364E-004
                    41  0.000000000000000E+000
                    42 -1.225281847751372E-004
                    43  4.227176467770676E-003
                    44  0.000000000000000E+000
                    45 -5.635890976672265E-004
                    46  0.000000000000000E+000
                    47  0.000000000000000E+000
                    48 -2.397235740281850E-004
                    49  4.463011213667273E-005
                    50  5.178647321571967E-004
                    51  0.000000000000000E+000
                    52  0.000000000000000E+000
                    53 -6.996290702810940E-004
                    54 -3.576764536009921E-004
                    55  0.000000000000000E+000
                    56  1.270933116464492E-005
                    57  1.061146821559313E-004
                    58  0.000000000000000E+000
                    59  0.000000000000000E+000
                    60 -3.531470811664779E-005
                    61  4.033798109771336E-004
                    62  8.641502271195945E-003
                    63 -2.084956859161841E-003
                    64 -2.378081699023710E-004
                    65  2.716484456915491E-003
                    66 -2.537585614177637E-006
                    67  6.438503959664923E-005
                    68  0.000000000000000E+000
                    69  5.561467383230548E-004
                    70  1.289228672934870E-004
                    71  0.000000000000000E+000
                    72 -2.150761718240433E-003
                    73  2.733162328579772E-004
                    74  0.000000000000000E+000
                    75  3.389747149651883E-005
                    76  0.000000000000000E+000
                    77  0.000000000000000E+000
                    78 -4.400685673897096E-006
                    79  8.182659114004432E-007
                    80 -4.088555196106428E-004
                    81  0.000000000000000E+000
                    82  0.000000000000000E+000
                    83 -6.178996404098350E-004
                    84 -2.475436965237410E-004
                    85  0.000000000000000E+000
                    86  2.671440419422284E-005
                    87 -5.777023378888285E-005
                    88  0.000000000000000E+000
                    89  0.000000000000000E+000
                    90  4.389309291537329E-005
                    91  1.530257003982854E-004
                    92  1.020286932441151E-002
                    93 -2.086951100774823E-003
                    94 -3.160975701115137E-004
                    95  3.207582614089736E-003
                    96  5.903150098467573E-005
                    97  2.481644873866500E-005
                    98  0.000000000000000E+000
                    99 -9.410841061915097E-004
                   100  2.245712253962088E-005
                   101  0.000000000000000E+000
                   102  1.823068445954905E-003
                   103  2.811219588478677E-005
                   104  0.000000000000000E+000
                   105  2.134172668576245E-005
                   106  0.000000000000000E+000
                   107  0.000000000000000E+000
                   108 -9.994874027409524E-007
                   109  1.272909001030316E-005
                   110 -4.243617332253538E-004
                   111  0.000000000000000E+000
                   112  0.000000000000000E+000
                   113 -3.877911792678362E-004
                   114  2.724077623376339E-004
                   115  0.000000000000000E+000
                   116 -2.541732397359257E-005
                   117 -6.890958259676705E-005
                   118  0.000000000000000E+000
                   119  0.000000000000000E+000
                   120 -1.080999917883338E-005
                   121  1.357132216873703E-004
                   122 -1.929100281191594E-004
                   123 -7.115142169115295E-004
                   124  2.241041243476702E-004
                   125 -7.486227638415454E-005
                   126  7.677987787730662E-006
                   127 -3.371537058471318E-004
                   128  0.000000000000000E+000
                   129 -8.976608347040741E-005
                   130  5.794030801388243E-004
                   131  0.000000000000000E+000
                   132  3.664127033435587E-004
                   133  9.193552484586621E-004
                   134  0.000000000000000E+000
                   135  1.641977854869708E-005
                   136  0.000000000000000E+000
                   137  0.000000000000000E+000
                   138  3.008458501923286E-006
                   139  4.406857045988191E-005
                   140  1.330844882888030E-004
                   141  0.000000000000000E+000
                   142  0.000000000000000E+000
                   143  2.423813804600288E-004
                   144 -1.046440847099169E-004
                   145  0.000000000000000E+000
                   146  1.027346398461909E-005
                   147 -3.758091970375447E-005
                   148  0.000000000000000E+000
                   149  0.000000000000000E+000
                   150 -4.788265255346950E-005
                   151  3.789799433843538E-005
                   152 -1.258548815046125E-004
                   153 -6.991230294311067E-004
                   154  2.316888922046462E-004
                   155 -3.147247478770762E-005
                   156 -2.824868523187659E-005
                   157 -3.316588405657351E-004
                   158  0.000000000000000E+000
                   159  1.342479604842238E-004
                   160  5.375747236494626E-004