[Molden Format]
[Atoms] AU
  N     1    7    -0.0799068400   -4.3361656000    0.0000000000        
  C     2    6     0.0331449500   -1.8333115900    0.0000000000        
  C     3    6    -2.3043615000   -0.4326654700    0.0000000000        
  C     4    6     2.3469444500   -0.3980806600    0.0000000000        
  C     5    6    -2.2833202800    2.1482203200    0.0000000000        
  C     6    6     2.2987900500    2.1817579500    0.0000000000        
  C     7    6    -0.0023937800    3.4855781900    0.0000000000        
  H     8    1    -2.7058890300   -5.8348795700    0.0000000000        
  H     9    1     1.6877938200   -5.1396842800    0.0000000000        
  H    10    1    -4.0342277100   -1.4788416000    0.0000000000        
  H    11    1     4.1099952300   -1.4006324100    0.0000000000        
  H    12    1    -4.0366905400    3.1694994900    0.0000000000        
  H    13    1     4.0385966600    3.2259657800    0.0000000000        
  H    14    1    -0.0154739100    5.5129679200    0.0000000000        
[5D]
[7F]
[GTO]
  1  0
   s    12 1.00
  0.114200D+05  0.172695D-04
  0.171200D+04  0.134411D-03
  0.389300D+03  0.694561D-03
  0.110000D+03  0.278531D-02
  0.355700D+02  0.863457D-02
  0.125400D+02  0.199805D-01
  0.464400D+01  0.262908D-01
  0.129300D+01 -0.243845D-01
  0.511800D+00 -0.924934D-01
  0.178700D+00 -0.339683D+00
  0.246240D-01  0.345111D+00
  0.112530D-01  0.752750D+00
   s    10 1.00
  0.114200D+05  0.523000D-03
  0.171200D+04  0.404500D-02
  0.389300D+03  0.207750D-01
  0.110000D+03  0.807269D-01
  0.355700D+02  0.233074D+00
  0.125400D+02  0.433501D+00
  0.464400D+01  0.347472D+00
  0.129300D+01  0.412620D-01
  0.511800D+00 -0.850799D-02
  0.178700D+00  0.238400D-02
   s    10 1.00
  0.114200D+05 -0.115000D-03
  0.171200D+04 -0.895000D-03
  0.389300D+03 -0.462400D-02
  0.110000D+03 -0.185280D-01
  0.355700D+02 -0.573390D-01
  0.125400D+02 -0.132076D+00
  0.464400D+01 -0.172510D+00
  0.129300D+01  0.151814D+00
  0.511800D+00  0.599944D+00
  0.178700D+00  0.387462D+00
   s     1 1.00
  0.129300D+01  0.100000D+01
   s     1 1.00
  0.178700D+00  0.100000D+01
   p     5 1.00
  0.266300D+02  0.146700D-01
  0.594800D+01  0.917640D-01
  0.174200D+01  0.298683D+00
  0.555000D+00  0.498487D+00
  0.172500D+00  0.337023D+00
   p     1 1.00
  0.174200D+01  0.100000D+01
   p     1 1.00
  0.555000D+00  0.100000D+01
   d     1 1.00
  0.165400D+01  0.100000D+01
   d     1 1.00
  0.469000D+00  0.100000D+01
   f     1 1.00
  0.109300D+01  0.100000D+01
  
  2  0
   s    10 1.00
  0.823600D+04  0.531000D-03
  0.123500D+04  0.410800D-02
  0.280800D+03  0.210870D-01
  0.792700D+02  0.818530D-01
  0.255900D+02  0.234817D+00
  0.899700D+01  0.434401D+00
  0.331900D+01  0.346129D+00
  0.905900D+00  0.393780D-01
  0.364300D+00 -0.898300D-02
  0.128500D+00  0.238500D-02
   s    10 1.00
  0.823600D+04 -0.113000D-03
  0.123500D+04 -0.878000D-03
  0.280800D+03 -0.454000D-02
  0.792700D+02 -0.181330D-01
  0.255900D+02 -0.557600D-01
  0.899700D+01 -0.126895D+00
  0.331900D+01 -0.170352D+00
  0.905900D+00  0.140382D+00
  0.364300D+00  0.598684D+00
  0.128500D+00  0.395389D+00
   s     1 1.00
  0.905900D+00  0.100000D+01
   s     1 1.00
  0.364300D+00  0.100000D+01
   p     5 1.00
  0.187100D+02  0.140310D-01
  0.413300D+01  0.868660D-01
  0.120000D+01  0.290216D+00
  0.382700D+00  0.501008D+00
  0.120900D+00  0.343406D+00
   p     1 1.00
  0.382700D+00  0.100000D+01
   p     1 1.00
  0.120900D+00  0.100000D+01
   d     1 1.00
  0.109700D+01  0.100000D+01
   d     1 1.00
  0.318000D+00  0.100000D+01
   f     1 1.00
  0.761000D+00  0.100000D+01
  
  3  0
   s    10 1.00
  0.823600D+04  0.531000D-03
  0.123500D+04  0.410800D-02
  0.280800D+03  0.210870D-01
  0.792700D+02  0.818530D-01
  0.255900D+02  0.234817D+00
  0.899700D+01  0.434401D+00
  0.331900D+01  0.346129D+00
  0.905900D+00  0.393780D-01
  0.364300D+00 -0.898300D-02
  0.128500D+00  0.238500D-02
   s    10 1.00
  0.823600D+04 -0.113000D-03
  0.123500D+04 -0.878000D-03
  0.280800D+03 -0.454000D-02
  0.792700D+02 -0.181330D-01
  0.255900D+02 -0.557600D-01
  0.899700D+01 -0.126895D+00
  0.331900D+01 -0.170352D+00
  0.905900D+00  0.140382D+00
  0.364300D+00  0.598684D+00
  0.128500D+00  0.395389D+00
   s     1 1.00
  0.905900D+00  0.100000D+01
   s     1 1.00
  0.364300D+00  0.100000D+01
   p     5 1.00
  0.187100D+02  0.140310D-01
  0.413300D+01  0.868660D-01
  0.120000D+01  0.290216D+00
  0.382700D+00  0.501008D+00
  0.120900D+00  0.343406D+00
   p     1 1.00
  0.382700D+00  0.100000D+01
   p     1 1.00
  0.120900D+00  0.100000D+01
   d     1 1.00
  0.109700D+01  0.100000D+01
   d     1 1.00
  0.318000D+00  0.100000D+01
   f     1 1.00
  0.761000D+00  0.100000D+01
  
  4  0
   s    10 1.00
  0.823600D+04  0.531000D-03
  0.123500D+04  0.410800D-02
  0.280800D+03  0.210870D-01
  0.792700D+02  0.818530D-01
  0.255900D+02  0.234817D+00
  0.899700D+01  0.434401D+00
  0.331900D+01  0.346129D+00
  0.905900D+00  0.393780D-01
  0.364300D+00 -0.898300D-02
  0.128500D+00  0.238500D-02
   s    10 1.00
  0.823600D+04 -0.113000D-03
  0.123500D+04 -0.878000D-03
  0.280800D+03 -0.454000D-02
  0.792700D+02 -0.181330D-01
  0.255900D+02 -0.557600D-01
  0.899700D+01 -0.126895D+00
  0.331900D+01 -0.170352D+00
  0.905900D+00  0.140382D+00
  0.364300D+00  0.598684D+00
  0.128500D+00  0.395389D+00
   s     1 1.00
  0.905900D+00  0.100000D+01
   s     1 1.00
  0.364300D+00  0.100000D+01
   p     5 1.00
  0.187100D+02  0.140310D-01
  0.413300D+01  0.868660D-01
  0.120000D+01  0.290216D+00
  0.382700D+00  0.501008D+00
  0.120900D+00  0.343406D+00
   p     1 1.00
  0.382700D+00  0.100000D+01
   p     1 1.00
  0.120900D+00  0.100000D+01
   d     1 1.00
  0.109700D+01  0.100000D+01
   d     1 1.00
  0.318000D+00  0.100000D+01
   f     1 1.00
  0.761000D+00  0.100000D+01
  
  5  0
   s    10 1.00
  0.823600D+04  0.531000D-03
  0.123500D+04  0.410800D-02
  0.280800D+03  0.210870D-01
  0.792700D+02  0.818530D-01
  0.255900D+02  0.234817D+00
  0.899700D+01  0.434401D+00
  0.331900D+01  0.346129D+00
  0.905900D+00  0.393780D-01
  0.364300D+00 -0.898300D-02
  0.128500D+00  0.238500D-02
   s    10 1.00
  0.823600D+04 -0.113000D-03
  0.123500D+04 -0.878000D-03
  0.280800D+03 -0.454000D-02
  0.792700D+02 -0.181330D-01
  0.255900D+02 -0.557600D-01
  0.899700D+01 -0.126895D+00
  0.331900D+01 -0.170352D+00
  0.905900D+00  0.140382D+00
  0.364300D+00  0.598684D+00
  0.128500D+00  0.395389D+00
   s     1 1.00
  0.905900D+00  0.100000D+01
   s     1 1.00
  0.364300D+00  0.100000D+01
   p     5 1.00
  0.187100D+02  0.140310D-01
  0.413300D+01  0.868660D-01
  0.120000D+01  0.290216D+00
  0.382700D+00  0.501008D+00
  0.120900D+00  0.343406D+00
   p     1 1.00
  0.382700D+00  0.100000D+01
   p     1 1.00
  0.120900D+00  0.100000D+01
   d     1 1.00
  0.109700D+01  0.100000D+01
   d     1 1.00
  0.318000D+00  0.100000D+01
   f     1 1.00
  0.761000D+00  0.100000D+01
  
  6  0
   s    10 1.00
  0.823600D+04  0.531000D-03
  0.123500D+04  0.410800D-02
  0.280800D+03  0.210870D-01
  0.792700D+02  0.818530D-01
  0.255900D+02  0.234817D+00
  0.899700D+01  0.434401D+00
  0.331900D+01  0.346129D+00
  0.905900D+00  0.393780D-01
  0.364300D+00 -0.898300D-02
  0.128500D+00  0.238500D-02
   s    10 1.00
  0.823600D+04 -0.113000D-03
  0.123500D+04 -0.878000D-03
  0.280800D+03 -0.454000D-02
  0.792700D+02 -0.181330D-01
  0.255900D+02 -0.557600D-01
  0.899700D+01 -0.126895D+00
  0.331900D+01 -0.170352D+00
  0.905900D+00  0.140382D+00
  0.364300D+00  0.598684D+00
  0.128500D+00  0.395389D+00
   s     1 1.00
  0.905900D+00  0.100000D+01
   s     1 1.00
  0.364300D+00  0.100000D+01
   p     5 1.00
  0.187100D+02  0.140310D-01
  0.413300D+01  0.868660D-01
  0.120000D+01  0.290216D+00
  0.382700D+00  0.501008D+00
  0.120900D+00  0.343406D+00
   p     1 1.00
  0.382700D+00  0.100000D+01
   p     1 1.00
  0.120900D+00  0.100000D+01
   d     1 1.00
  0.109700D+01  0.100000D+01
   d     1 1.00
  0.318000D+00  0.100000D+01
   f     1 1.00
  0.761000D+00  0.100000D+01
  
  7  0
   s    10 1.00
  0.823600D+04  0.531000D-03
  0.123500D+04  0.410800D-02
  0.280800D+03  0.210870D-01
  0.792700D+02  0.818530D-01
  0.255900D+02  0.234817D+00
  0.899700D+01  0.434401D+00
  0.331900D+01  0.346129D+00
  0.905900D+00  0.393780D-01
  0.364300D+00 -0.898300D-02
  0.128500D+00  0.238500D-02
   s    10 1.00
  0.823600D+04 -0.113000D-03
  0.123500D+04 -0.878000D-03
  0.280800D+03 -0.454000D-02
  0.792700D+02 -0.181330D-01
  0.255900D+02 -0.557600D-01
  0.899700D+01 -0.126895D+00
  0.331900D+01 -0.170352D+00
  0.905900D+00  0.140382D+00
  0.364300D+00  0.598684D+00
  0.128500D+00  0.395389D+00
   s     1 1.00
  0.905900D+00  0.100000D+01
   s     1 1.00
  0.364300D+00  0.100000D+01
   p     5 1.00
  0.187100D+02  0.140310D-01
  0.413300D+01  0.868660D-01
  0.120000D+01  0.290216D+00
  0.382700D+00  0.501008D+00
  0.120900D+00  0.343406D+00
   p     1 1.00
  0.382700D+00  0.100000D+01
   p     1 1.00
  0.120900D+00  0.100000D+01
   d     1 1.00
  0.109700D+01  0.100000D+01
   d     1 1.00
  0.318000D+00  0.100000D+01
   f     1 1.00
  0.761000D+00  0.100000D+01
  
  8  0
   s     4 1.00
  0.130100D+02  0.196850D-01
  0.196200D+01  0.137977D+00
  0.444600D+00  0.478148D+00
  0.122000D+00  0.501240D+00
   s     1 1.00
  0.122000D+00  0.100000D+01
   p     1 1.00
  0.727000D+00  0.100000D+01
  
  9  0
   s     4 1.00
  0.130100D+02  0.196850D-01
  0.196200D+01  0.137977D+00
  0.444600D+00  0.478148D+00
  0.122000D+00  0.501240D+00
   s     1 1.00
  0.122000D+00  0.100000D+01
   p     1 1.00
  0.727000D+00  0.100000D+01
  
 10  0
   s     4 1.00
  0.130100D+02  0.196850D-01
  0.196200D+01  0.137977D+00
  0.444600D+00  0.478148D+00
  0.122000D+00  0.501240D+00
   s     1 1.00
  0.122000D+00  0.100000D+01
   p     1 1.00
  0.727000D+00  0.100000D+01
  
 11  0
   s     4 1.00
  0.130100D+02  0.196850D-01
  0.196200D+01  0.137977D+00
  0.444600D+00  0.478148D+00
  0.122000D+00  0.501240D+00
   s     1 1.00
  0.122000D+00  0.100000D+01
   p     1 1.00
  0.727000D+00  0.100000D+01
  
 12  0
   s     4 1.00
  0.130100D+02  0.196850D-01
  0.196200D+01  0.137977D+00
  0.444600D+00  0.478148D+00
  0.122000D+00  0.501240D+00
   s     1 1.00
  0.122000D+00  0.100000D+01
   p     1 1.00
  0.727000D+00  0.100000D+01
  
 13  0
   s     4 1.00
  0.130100D+02  0.196850D-01
  0.196200D+01  0.137977D+00
  0.444600D+00  0.478148D+00
  0.122000D+00  0.501240D+00
   s     1 1.00
  0.122000D+00  0.100000D+01
   p     1 1.00
  0.727000D+00  0.100000D+01
  
 14  0
   s     4 1.00
  0.130100D+02  0.196850D-01
  0.196200D+01  0.137977D+00
  0.444600D+00  0.478148D+00
  0.122000D+00  0.501240D+00
   s     1 1.00
  0.122000D+00  0.100000D+01
   p     1 1.00
  0.727000D+00  0.100000D+01
  
[MO]
 Sym= __1_A'_
 Ene=  0.000000000000000E+000
 Spin= Alpha
 Occup=    2.00000000000000     
                     1  6.720899202954321E-005
                     2  0.998374528710328     
                     3  3.064935848211396E-003
                     4  1.710232416139810E-003
                     5  4.788429343568984E-003
                     6  3.404236915356504E-003
                     7  6.359142321681056E-003
                     8  0.000000000000000E+000
                     9 -5.981102348895107E-004
                    10 -5.508772547372234E-004
                    11  0.000000000000000E+000
                    12 -2.312225912645719E-003
                    13 -1.493552430071728E-003
                    14  0.000000000000000E+000
                    15 -1.340987373173229E-004
                    16  0.000000000000000E+000
                    17  0.000000000000000E+000
                    18 -1.865770720148959E-004
                    19 -6.250018782208705E-005
                    20  1.476053051026565E-004
                    21  0.000000000000000E+000
                    22  0.000000000000000E+000
                    23 -3.706961154854480E-004
                    24  4.880828203927648E-004
                    25  0.000000000000000E+000
                    26 -1.362674189921918E-005
                    27 -6.655636707285434E-005
                    28  0.000000000000000E+000
                    29  0.000000000000000E+000
                    30  3.217564437605619E-005
                    31 -1.504820722381853E-004
                    32 -3.729613310343782E-004
                    33  1.555166346206114E-003
                    34  3.123681671379129E-004
                    35 -4.410023159435817E-004
                    36 -2.872327099486748E-004
                    37 -5.254908428002543E-003
                    38  0.000000000000000E+000
                    39  4.227563708040836E-004
                    40  5.235768654295722E-004
                    41  0.000000000000000E+000
                    42 -2.001514413094117E-003
                    43  5.446182783814471E-003
                    44  0.000000000000000E+000
                    45 -1.592906212778417E-005
                    46  0.000000000000000E+000
                    47  0.000000000000000E+000
                    48 -2.366140282955808E-004
                    49 -1.280710233276741E-005
                    50 -2.734453533303255E-004
                    51  0.000000000000000E+000
                    52  0.000000000000000E+000
                    53  7.198476227293419E-005
                    54  7.361438332425608E-004
                    55  0.000000000000000E+000
                    56 -1.327369037653821E-005
                    57 -5.379826741877415E-005
                    58  0.000000000000000E+000
                    59  0.000000000000000E+000
                    60  4.237298079164603E-005
                    61 -1.269748240289218E-004
                    62 -4.537705398765957E-004
                    63 -2.192797261054891E-003
                    64 -8.360490323204507E-005
                    65  1.945946851752870E-003
                    66 -7.095545350673981E-004
                    67  5.466494668106979E-004
                    68  0.000000000000000E+000
                    69  3.693161598221925E-004
                    70  8.407140555713136E-004
                    71  0.000000000000000E+000
                    72 -1.886687996182756E-003
                    73  8.509201674065803E-004
                    74  0.000000000000000E+000
                    75 -3.856608432219310E-005
                    76  0.000000000000000E+000
                    77  0.000000000000000E+000
                    78 -7.812021068049818E-005
                    79 -2.481261956199981E-005
                    80 -1.208678561801660E-004
                    81  0.000000000000000E+000
                    82  0.000000000000000E+000
                    83  1.190693465938579E-005
                    84  9.952968471295646E-005
                    85  0.000000000000000E+000
                    86  1.338323325575206E-005
                    87 -5.051462637317222E-005
                    88  0.000000000000000E+000
                    89  0.000000000000000E+000
                    90 -2.657289393226441E-005
                    91 -1.467890276354423E-004
                    92 -1.789898009335841E-004
                    93 -1.270159944550040E-003
                    94  2.035917404071085E-004
                    95 -1.529519287628838E-004
                    96  6.223889861044526E-004
                    97  7.667577732459269E-004
                    98  0.000000000000000E+000
                    99  3.876389001032079E-004
                   100  3.749283915937799E-004
                   101  0.000000000000000E+000
                   102  4.548676979128873E-004
                   103 -1.604754798954704E-003
                   104  0.000000000000000E+000
                   105  4.222020672009057E-007
                   106  0.000000000000000E+000
                   107  0.000000000000000E+000
                   108 -8.407380784834441E-005
                   109 -1.882553370289696E-005
                   110  9.330677212581633E-005
                   111  0.000000000000000E+000
                   112  0.000000000000000E+000
                   113 -1.403988319123900E-004
                   114 -4.544009189649792E-005
                   115  0.000000000000000E+000
                   116 -2.687914290178380E-005
                   117 -2.716799656456908E-005
                   118  0.000000000000000E+000
                   119  0.000000000000000E+000
                   120 -1.724229552206016E-005
                   121 -3.113132150086671E-005
                   122 -2.527801985213570E-004
                   123 -4.734833645904701E-004
                   124  1.728077427936265E-004
                   125  2.917125055082007E-004
                   126 -1.290705702308272E-005
                   127 -5.936882737303962E-004
                   128  0.000000000000000E+000
                   129  1.824414053255341E-004
                   130  6.416545410396292E-004
                   131  0.000000000000000E+000
                   132  5.617201507200277E-004
                   133  2.011895062871407E-003
                   134  0.000000000000000E+000
                   135  1.487367962603977E-005
                   136  0.000000000000000E+000
                   137  0.000000000000000E+000
                   138  3.905163790566580E-005
                   139  1.969883802579775E-006
                   140  1.786631806691323E-004
                   141  0.000000000000000E+000
                   142  0.000000000000000E+000
                   143  3.720236241316806E-004
                   144  2.335155660593188E-004
                   145  0.000000000000000E+000
                   146 -9.433951694745570E-006
                   147 -5.886627815463350E-005
                   148  0.000000000000000E+000
                   149  0.000000000000000E+000
                   150 -1.394946929187783E-005
                   151 -4.392799048250628E-005
                   152 -1.625913786167917E-004
                   153 -1.796152018271171E-004
                   154  5.766738450653095E-005
                   155  2.690222688540191E-004
                   156 -2.841402832753812E-005
                   157 -5.353826842904169E-004
                   158  0.000000000000000E+000
                   159  3.740520397011836E-005
                   160  6.283931977320985E-005
                   161  0.000000000000000E+000
                   162  7.879241319989549E-004
                   163 -2.865144901184848E-004
                   164  0.000000000000000E+000
                   165 -1.420466628835440E-006
                   166  0.000000000000000E+000
                   167  0.000000000000000E+000
                   168 -6.212445941199038E-006
                   169  8.801257929952442E-007
                   170  9.131433099583484E-005
                   171  0.000000000000000E+000
                   172  0.000000000000000E+000
                   173  2.575945515977344E-005
                   174 -2.469345188001232E-005
                   175  0.000000000000000E+000
                   176  9.010921606034766E-007
                   177 -1.067109366575723E-005
                   178  0.000000000000000E+000
                   179  0.000000000000000E+000
                   180 -1.313829043177962E-005
                   181 -1.937170622660934E-005
                   182 -1.647458352843124E-004
                   183 -4.782271587660646E-004
                   184  4.031673854556325E-005
                   185  2.385443375750028E-004
                   186 -4.457380811466502E-005
                   187 -4.744755274089928E-005
                   188  0.000000000000000E+000
                   189  2.415178140378604E-004
                   190  7.538554748674281E-005
                   191  0.000000000000000E+000
                   192  1.329461120052962E-003
                   193 -1.932116839775844E-004
                   194  0.000000000000000E+000
                   195  6.105450805491307E-007
                   196  0.000000000000000E+000
                   197  0.000000000000000E+000
                   198 -1.237339495014046E-005
                   199  3.077514840541479E-006
                   200 -5.099642896325956E-006
                   201  0.000000000000000E+000
                   202  0.000000000000000E+000
                   203 -8.099152932553844E-005
                   204 -1.878099353084769E-004
                   205  0.000000000000000E+000
                   206 -8.554137419657860E-006
                   207 -4.669118750617523E-006
                   208  0.000000000000000E+000
                   209  0.000000000000000E+000
                   210  6.710967589379296E-006
                   211 -8.296375410706920E-006
                   212  8.898852475334479E-005
                   213  2.231890990067566E-005
                   214  1.455280986471062E-004
                   215  1.389207412887316E-004
                   216  0.000000000000000E+000
                   217  1.748895828707006E-003
                   218 -1.710827529903937E-003
                   219 -4.415938606871185E-004
                   220  2.104280197085645E-004
                   221  0.000000000000000E+000
                   222 -4.594813426025856E-004
                   223 -6.907806482702008E-004
                   224 -6.255195721924909E-006
                   225 -6.097990806547262E-005
                   226  0.000000000000000E+000
                   227 -3.232117630782195E-004
                   228 -4.319634455099058E-004
                   229 -1.405451656729641E-005
                   230 -2.381187258855536E-005
                   231  0.000000000000000E+000
                   232 -1.111817288858794E-004
                   233 -4.548698098590711E-004
                   234  3.737596238452592E-007
                   235  1.191009565806045E-006
                   236  0.000000000000000E+000
                   237 -1.702384318632351E-004
                   238 -4.227406016668119E-004
                   239  3.452283277699258E-006
                   240 -7.900839841346515E-007
                   241  0.000000000000000E+000
                   242  9.408771477014300E-006
                   243  1.335056311087894E-006
                   244 -6.409297887036749E-008
                   245  2.614088986048538E-005
                   246  0.000000000000000E+000
 Sym= __2_A'_
 Ene=  0.000000000000000E+000
 Spin= Alpha
 Occup=    2.00000000000000     
                     1 -4.983897352008654E-005
                     2 -3.150440538628730E-004
                     3  2.590939331287046E-003
                     4  1.462324064179325E-004
                     5  1.421826328685477E-003
                     6 -3.391635043955025E-004
                     7  3.091694029585751E-003
                     8  0.000000000000000E+000
                     9 -2.881845191831467E-005
                    10 -1.097996097159338E-004
                    11  0.000000000000000E+000
                    12  3.416585505114863E-006
                    13 -4.437445800921551E-004
                    14  0.000000000000000E+000
                    15  3.835131138108797E-005
                    16  0.000000000000000E+000
                    17  0.000000000000000E+000
                    18 -4.834273990557750E-005
                    19  1.813447730996172E-005
                    20 -1.265985938332055E-004
                    21  0.000000000000000E+000
                    22  0.000000000000000E+000
                    23  1.781502881259486E-004
                    24 -1.254330055074797E-004
                    25  0.000000000000000E+000
                    26 -1.744828941241666E-005
                    27  9.322585676269947E-005
                    28  0.000000000000000E+000
                    29  0.000000000000000E+000
                    30 -5.948888065972275E-005
                    31  1.345398424230115E-004
                    32   1.00100251532429     
                    33  9.324749812882940E-003
                    34  2.706656105379238E-003
                    35 -8.011939390457336E-003
                    36 -7.212245759219888E-006
                    37 -3.394091463253203E-003
                    38  0.000000000000000E+000
                    39 -1.976552926342568E-004
                    40  1.704286000316033E-004
                    41  0.000000000000000E+000
                    42 -1.225281837779450E-004
                    43  4.227176468080420E-003
                    44  0.000000000000000E+000
                    45 -5.635890977313862E-004
                    46  0.000000000000000E+000
                    47  0.000000000000000E+000
                    48 -2.397235739374756E-004
                    49  4.463011201837181E-005
                    50  5.178647320935347E-004
                    51  0.000000000000000E+000
                    52  0.000000000000000E+000
                    53 -6.996290704103724E-004
                    54 -3.576764535830811E-004
                    55  0.000000000000000E+000
                    56  1.270933116064644E-005
                    57  1.061146821405231E-004
                    58  0.000000000000000E+000
                    59  0.000000000000000E+000
                    60 -3.531470812757421E-005
                    61  4.033798110577206E-004
                    62  8.641502480042435E-003
                    63 -2.084956855710401E-003
                    64 -2.378081693400260E-004
                    65  2.716484455248045E-003
                    66 -2.537583027251655E-006
                    67  6.438503597250131E-005
                    68  0.000000000000000E+000
                    69  5.561467381318696E-004
                    70  1.289228675300421E-004
                    71  0.000000000000000E+000
                    72 -2.150761718848169E-003
                    73  2.733162337391252E-004
                    74  0.000000000000000E+000
                    75  3.389747137497810E-005
                    76  0.000000000000000E+000
                    77  0.000000000000000E+000
                    78 -4.400685585607386E-006
                    79  8.182658154973285E-007
                    80 -4.088555195671843E-004
                    81  0.000000000000000E+000
                    82  0.000000000000000E+000
                    83 -6.178996403287665E-004
                    84 -2.475436965455849E-004
                    85  0.000000000000000E+000
                    86  2.671440418946216E-005
                    87 -5.777023375346516E-005
                    88  0.000000000000000E+000
                    89  0.000000000000000E+000
                    90  4.389309291631458E-005
                    91  1.530257003225593E-004
                    92  1.020286899436043E-002
                    93 -2.086951103630833E-003
                    94 -3.160975710956463E-004
                    95  3.207582616993000E-003
                    96  5.903150198673642E-005
                    97  2.481644693534219E-005
                    98  0.000000000000000E+000
                    99 -9.410841065003786E-004
                   100  2.245712280289611E-005
                   101  0.000000000000000E+000
                   102  1.823068446641701E-003
                   103  2.811219624047383E-005
                   104  0.000000000000000E+000
                   105  2.134172681603849E-005
                   106  0.000000000000000E+000
                   107  0.000000000000000E+000
                   108 -9.994872785471985E-007
                   109  1.272908996018727E-005
                   110 -4.243617333881316E-004
                   111  0.000000000000000E+000
                   112  0.000000000000000E+000
                   113 -3.877911794506172E-004
                   114  2.724077627530059E-004
                   115  0.000000000000000E+000
                   116 -2.541732394384575E-005
                   117 -6.890958259029609E-005
                   118  0.000000000000000E+000
                   119  0.000000000000000E+000
                   120 -1.080999917645831E-005
                   121  1.357132217678715E-004
                   122 -1.929100251486810E-004
                   123 -7.115142182183279E-004
                   124  2.241041243270584E-004
                   125 -7.486227596088953E-005
                   126  7.677987591736984E-006
                   127 -3.371537036814018E-004
                   128  0.000000000000000E+000
                   129 -8.976608333141442E-005
                   130  5.794030799198647E-004
                   131  0.000000000000000E+000
                   132  3.664127033194236E-004
                   133  9.193552485981120E-004
                   134  0.000000000000000E+000
                   135  1.641977857757340E-005
                   136  0.000000000000000E+000
                   137  0.000000000000000E+000
                   138  3.008458576089540E-006
                   139  4.406857040777229E-005
                   140  1.330844882525303E-004
                   141  0.000000000000000E+000
                   142  0.000000000000000E+000
                   143  2.423813805572530E-004
                   144 -1.046440846195120E-004
                   145  0.000000000000000E+000
                   146  1.027346397224358E-005
                   147 -3.758091974008739E-005
                   148  0.000000000000000E+000
                   149  0.000000000000000E+000
                   150 -4.788265253523269E-005
                   151  3.789799428816171E-005
                   152 -1.258548843424200E-004
                   153 -6.991230301583837E-004
                   154  2.316888923578491E-004
                   155 -3.147247559702873E-005
                   156 -2.824868551720257E-005
                   157 -3.316588388985179E-004
                   158  0.000000000000000E+000
                   159  1.342479605494853E-004
                   160  5.375747237788204E-004