[Molden Format]
[Atoms] AU
  N     1    7    -4.5082829200   -0.1342819900   -0.4228200100        
  C     2    6    -1.7496705200   -0.0824342700   -0.1838819400        
  C     3    6    -0.3491890900    0.2202010900   -2.3813599000        
  C     4    6    -0.4819141000   -0.3194027500    2.1144844200        
  C     5    6     2.2679837200    0.2851297300   -2.2867536700        
  C     6    6     2.1285900100   -0.2535069600    2.1993448600        
  C     7    6     3.5096699900    0.0491470500   -0.0030301700        
  H     8    1    -5.0800915200   -1.8566336900    0.5908505700        
  H     9    1    -5.1331481600    1.1861733600    0.8837931500        
  H    10    1    -1.3260875200    0.4019365300   -4.1451509600        
  H    11    1    -1.5448115400   -0.5543420500    3.8263524900        
  H    12    1     3.3318141500    0.5199799700   -3.9976458500        
  H    13    1     3.0845146800   -0.4378414600    3.9798216900        
  H    14    1     5.5368142800    0.0998677000    0.0666404700        
[5D]
[7F]
[GTO]
  1  0
   s    12 1.00
  0.114200D+05  0.172695D-04
  0.171200D+04  0.134411D-03
  0.389300D+03  0.694561D-03
  0.110000D+03  0.278531D-02
  0.355700D+02  0.863457D-02
  0.125400D+02  0.199805D-01
  0.464400D+01  0.262908D-01
  0.129300D+01 -0.243845D-01
  0.511800D+00 -0.924934D-01
  0.178700D+00 -0.339683D+00
  0.246240D-01  0.345111D+00
  0.112530D-01  0.752750D+00
   s    10 1.00
  0.114200D+05  0.523000D-03
  0.171200D+04  0.404500D-02
  0.389300D+03  0.207750D-01
  0.110000D+03  0.807269D-01
  0.355700D+02  0.233074D+00
  0.125400D+02  0.433501D+00
  0.464400D+01  0.347472D+00
  0.129300D+01  0.412620D-01
  0.511800D+00 -0.850799D-02
  0.178700D+00  0.238400D-02
   s    10 1.00
  0.114200D+05 -0.115000D-03
  0.171200D+04 -0.895000D-03
  0.389300D+03 -0.462400D-02
  0.110000D+03 -0.185280D-01
  0.355700D+02 -0.573390D-01
  0.125400D+02 -0.132076D+00
  0.464400D+01 -0.172510D+00
  0.129300D+01  0.151814D+00
  0.511800D+00  0.599944D+00
  0.178700D+00  0.387462D+00
   s     1 1.00
  0.129300D+01  0.100000D+01
   s     1 1.00
  0.178700D+00  0.100000D+01
   p     5 1.00
  0.266300D+02  0.146700D-01
  0.594800D+01  0.917640D-01
  0.174200D+01  0.298683D+00
  0.555000D+00  0.498487D+00
  0.172500D+00  0.337023D+00
   p     1 1.00
  0.174200D+01  0.100000D+01
   p     1 1.00
  0.555000D+00  0.100000D+01
   d     1 1.00
  0.165400D+01  0.100000D+01
   d     1 1.00
  0.469000D+00  0.100000D+01
   f     1 1.00
  0.109300D+01  0.100000D+01
  
  2  0
   s    10 1.00
  0.823600D+04  0.531000D-03
  0.123500D+04  0.410800D-02
  0.280800D+03  0.210870D-01
  0.792700D+02  0.818530D-01
  0.255900D+02  0.234817D+00
  0.899700D+01  0.434401D+00
  0.331900D+01  0.346129D+00
  0.905900D+00  0.393780D-01
  0.364300D+00 -0.898300D-02
  0.128500D+00  0.238500D-02
   s    10 1.00
  0.823600D+04 -0.113000D-03
  0.123500D+04 -0.878000D-03
  0.280800D+03 -0.454000D-02
  0.792700D+02 -0.181330D-01
  0.255900D+02 -0.557600D-01
  0.899700D+01 -0.126895D+00
  0.331900D+01 -0.170352D+00
  0.905900D+00  0.140382D+00
  0.364300D+00  0.598684D+00
  0.128500D+00  0.395389D+00
   s     1 1.00
  0.905900D+00  0.100000D+01
   s     1 1.00
  0.364300D+00  0.100000D+01
   p     5 1.00
  0.187100D+02  0.140310D-01
  0.413300D+01  0.868660D-01
  0.120000D+01  0.290216D+00
  0.382700D+00  0.501008D+00
  0.120900D+00  0.343406D+00
   p     1 1.00
  0.382700D+00  0.100000D+01
   p     1 1.00
  0.120900D+00  0.100000D+01
   d     1 1.00
  0.109700D+01  0.100000D+01
   d     1 1.00
  0.318000D+00  0.100000D+01
   f     1 1.00
  0.761000D+00  0.100000D+01
  
  3  0
   s    10 1.00
  0.823600D+04  0.531000D-03
  0.123500D+04  0.410800D-02
  0.280800D+03  0.210870D-01
  0.792700D+02  0.818530D-01
  0.255900D+02  0.234817D+00
  0.899700D+01  0.434401D+00
  0.331900D+01  0.346129D+00
  0.905900D+00  0.393780D-01
  0.364300D+00 -0.898300D-02
  0.128500D+00  0.238500D-02
   s    10 1.00
  0.823600D+04 -0.113000D-03
  0.123500D+04 -0.878000D-03
  0.280800D+03 -0.454000D-02
  0.792700D+02 -0.181330D-01
  0.255900D+02 -0.557600D-01
  0.899700D+01 -0.126895D+00
  0.331900D+01 -0.170352D+00
  0.905900D+00  0.140382D+00
  0.364300D+00  0.598684D+00
  0.128500D+00  0.395389D+00
   s     1 1.00
  0.905900D+00  0.100000D+01
   s     1 1.00
  0.364300D+00  0.100000D+01
   p     5 1.00
  0.187100D+02  0.140310D-01
  0.413300D+01  0.868660D-01
  0.120000D+01  0.290216D+00
  0.382700D+00  0.501008D+00
  0.120900D+00  0.343406D+00
   p     1 1.00
  0.382700D+00  0.100000D+01
   p     1 1.00
  0.120900D+00  0.100000D+01
   d     1 1.00
  0.109700D+01  0.100000D+01
   d     1 1.00
  0.318000D+00  0.100000D+01
   f     1 1.00
  0.761000D+00  0.100000D+01
  
  4  0
   s    10 1.00
  0.823600D+04  0.531000D-03
  0.123500D+04  0.410800D-02
  0.280800D+03  0.210870D-01
  0.792700D+02  0.818530D-01
  0.255900D+02  0.234817D+00
  0.899700D+01  0.434401D+00
  0.331900D+01  0.346129D+00
  0.905900D+00  0.393780D-01
  0.364300D+00 -0.898300D-02
  0.128500D+00  0.238500D-02
   s    10 1.00
  0.823600D+04 -0.113000D-03
  0.123500D+04 -0.878000D-03
  0.280800D+03 -0.454000D-02
  0.792700D+02 -0.181330D-01
  0.255900D+02 -0.557600D-01
  0.899700D+01 -0.126895D+00
  0.331900D+01 -0.170352D+00
  0.905900D+00  0.140382D+00
  0.364300D+00  0.598684D+00
  0.128500D+00  0.395389D+00
   s     1 1.00
  0.905900D+00  0.100000D+01
   s     1 1.00
  0.364300D+00  0.100000D+01
   p     5 1.00
  0.187100D+02  0.140310D-01
  0.413300D+01  0.868660D-01
  0.120000D+01  0.290216D+00
  0.382700D+00  0.501008D+00
  0.120900D+00  0.343406D+00
   p     1 1.00
  0.382700D+00  0.100000D+01
   p     1 1.00
  0.120900D+00  0.100000D+01
   d     1 1.00
  0.109700D+01  0.100000D+01
   d     1 1.00
  0.318000D+00  0.100000D+01
   f     1 1.00
  0.761000D+00  0.100000D+01
  
  5  0
   s    10 1.00
  0.823600D+04  0.531000D-03
  0.123500D+04  0.410800D-02
  0.280800D+03  0.210870D-01
  0.792700D+02  0.818530D-01
  0.255900D+02  0.234817D+00
  0.899700D+01  0.434401D+00
  0.331900D+01  0.346129D+00
  0.905900D+00  0.393780D-01
  0.364300D+00 -0.898300D-02
  0.128500D+00  0.238500D-02
   s    10 1.00
  0.823600D+04 -0.113000D-03
  0.123500D+04 -0.878000D-03
  0.280800D+03 -0.454000D-02
  0.792700D+02 -0.181330D-01
  0.255900D+02 -0.557600D-01
  0.899700D+01 -0.126895D+00
  0.331900D+01 -0.170352D+00
  0.905900D+00  0.140382D+00
  0.364300D+00  0.598684D+00
  0.128500D+00  0.395389D+00
   s     1 1.00
  0.905900D+00  0.100000D+01
   s     1 1.00
  0.364300D+00  0.100000D+01
   p     5 1.00
  0.187100D+02  0.140310D-01
  0.413300D+01  0.868660D-01
  0.120000D+01  0.290216D+00
  0.382700D+00  0.501008D+00
  0.120900D+00  0.343406D+00
   p     1 1.00
  0.382700D+00  0.100000D+01
   p     1 1.00
  0.120900D+00  0.100000D+01
   d     1 1.00
  0.109700D+01  0.100000D+01
   d     1 1.00
  0.318000D+00  0.100000D+01
   f     1 1.00
  0.761000D+00  0.100000D+01
  
  6  0
   s    10 1.00
  0.823600D+04  0.531000D-03
  0.123500D+04  0.410800D-02
  0.280800D+03  0.210870D-01
  0.792700D+02  0.818530D-01
  0.255900D+02  0.234817D+00
  0.899700D+01  0.434401D+00
  0.331900D+01  0.346129D+00
  0.905900D+00  0.393780D-01
  0.364300D+00 -0.898300D-02
  0.128500D+00  0.238500D-02
   s    10 1.00
  0.823600D+04 -0.113000D-03
  0.123500D+04 -0.878000D-03
  0.280800D+03 -0.454000D-02
  0.792700D+02 -0.181330D-01
  0.255900D+02 -0.557600D-01
  0.899700D+01 -0.126895D+00
  0.331900D+01 -0.170352D+00
  0.905900D+00  0.140382D+00
  0.364300D+00  0.598684D+00
  0.128500D+00  0.395389D+00
   s     1 1.00
  0.905900D+00  0.100000D+01
   s     1 1.00
  0.364300D+00  0.100000D+01
   p     5 1.00
  0.187100D+02  0.140310D-01
  0.413300D+01  0.868660D-01
  0.120000D+01  0.290216D+00
  0.382700D+00  0.501008D+00
  0.120900D+00  0.343406D+00
   p     1 1.00
  0.382700D+00  0.100000D+01
   p     1 1.00
  0.120900D+00  0.100000D+01
   d     1 1.00
  0.109700D+01  0.100000D+01
   d     1 1.00
  0.318000D+00  0.100000D+01
   f     1 1.00
  0.761000D+00  0.100000D+01
  
  7  0
   s    10 1.00
  0.823600D+04  0.531000D-03
  0.123500D+04  0.410800D-02
  0.280800D+03  0.210870D-01
  0.792700D+02  0.818530D-01
  0.255900D+02  0.234817D+00
  0.899700D+01  0.434401D+00
  0.331900D+01  0.346129D+00
  0.905900D+00  0.393780D-01
  0.364300D+00 -0.898300D-02
  0.128500D+00  0.238500D-02
   s    10 1.00
  0.823600D+04 -0.113000D-03
  0.123500D+04 -0.878000D-03
  0.280800D+03 -0.454000D-02
  0.792700D+02 -0.181330D-01
  0.255900D+02 -0.557600D-01
  0.899700D+01 -0.126895D+00
  0.331900D+01 -0.170352D+00
  0.905900D+00  0.140382D+00
  0.364300D+00  0.598684D+00
  0.128500D+00  0.395389D+00
   s     1 1.00
  0.905900D+00  0.100000D+01
   s     1 1.00
  0.364300D+00  0.100000D+01
   p     5 1.00
  0.187100D+02  0.140310D-01
  0.413300D+01  0.868660D-01
  0.120000D+01  0.290216D+00
  0.382700D+00  0.501008D+00
  0.120900D+00  0.343406D+00
   p     1 1.00
  0.382700D+00  0.100000D+01
   p     1 1.00
  0.120900D+00  0.100000D+01
   d     1 1.00
  0.109700D+01  0.100000D+01
   d     1 1.00
  0.318000D+00  0.100000D+01
   f     1 1.00
  0.761000D+00  0.100000D+01
  
  8  0
   s     4 1.00
  0.130100D+02  0.196850D-01
  0.196200D+01  0.137977D+00
  0.444600D+00  0.478148D+00
  0.122000D+00  0.501240D+00
   s     1 1.00
  0.122000D+00  0.100000D+01
   p     1 1.00
  0.727000D+00  0.100000D+01
  
  9  0
   s     4 1.00
  0.130100D+02  0.196850D-01
  0.196200D+01  0.137977D+00
  0.444600D+00  0.478148D+00
  0.122000D+00  0.501240D+00
   s     1 1.00
  0.122000D+00  0.100000D+01
   p     1 1.00
  0.727000D+00  0.100000D+01
  
 10  0
   s     4 1.00
  0.130100D+02  0.196850D-01
  0.196200D+01  0.137977D+00
  0.444600D+00  0.478148D+00
  0.122000D+00  0.501240D+00
   s     1 1.00
  0.122000D+00  0.100000D+01
   p     1 1.00
  0.727000D+00  0.100000D+01
  
 11  0
   s     4 1.00
  0.130100D+02  0.196850D-01
  0.196200D+01  0.137977D+00
  0.444600D+00  0.478148D+00
  0.122000D+00  0.501240D+00
   s     1 1.00
  0.122000D+00  0.100000D+01
   p     1 1.00
  0.727000D+00  0.100000D+01
  
 12  0
   s     4 1.00
  0.130100D+02  0.196850D-01
  0.196200D+01  0.137977D+00
  0.444600D+00  0.478148D+00
  0.122000D+00  0.501240D+00
   s     1 1.00
  0.122000D+00  0.100000D+01
   p     1 1.00
  0.727000D+00  0.100000D+01
  
 13  0
   s     4 1.00
  0.130100D+02  0.196850D-01
  0.196200D+01  0.137977D+00
  0.444600D+00  0.478148D+00
  0.122000D+00  0.501240D+00
   s     1 1.00
  0.122000D+00  0.100000D+01
   p     1 1.00
  0.727000D+00  0.100000D+01
  
 14  0
   s     4 1.00
  0.130100D+02  0.196850D-01
  0.196200D+01  0.137977D+00
  0.444600D+00  0.478148D+00
  0.122000D+00  0.501240D+00
   s     1 1.00
  0.122000D+00  0.100000D+01
   p     1 1.00
  0.727000D+00  0.100000D+01
  
[MO]
 Sym= __1_A__
 Ene=   1.00000000000000     
 Spin= Alpha
 Occup=    1.00000000000000     
                     1 -7.271985703453775E-004
                     2  0.997604157665796     
                     3 -3.841826847217934E-002
                     4  2.003584051313061E-003
                     5  4.293940904403942E-003
                     6  1.411490458117035E-002
                     7 -3.603796864551490E-003
                     8  2.891231495773454E-002
                     9 -1.342687832591566E-003
                    10  1.327692305837557E-004
                    11 -2.046129951123953E-003
                    12 -3.763476833637568E-003
                    13  6.652163494237249E-004
                    14 -5.756162851245630E-003
                    15  1.848279487251279E-004
                    16  9.780520431058888E-005
                    17 -4.342041533869859E-005
                    18  5.350013151635942E-005
                    19  2.547708238501036E-009
                    20  8.096705327354451E-004
                    21  7.238909345756916E-004
                    22 -1.032468281190661E-004
                    23  7.404247080330875E-005
                    24 -1.281695188478823E-004
                    25  2.217404871840059E-005
                    26 -5.593474649274924E-005
                    27  1.044867614844088E-005
                    28  4.211339406743988E-005
                    29  1.917247670935100E-005
                    30  6.624000157862451E-005
                    31 -1.703720093922237E-005
                    32 -5.511840769564816E-004
                    33  4.491165100413094E-004
                    34  2.074039313718886E-004
                    35  1.896529985855495E-004
                    36  1.245395629689817E-003
                    37 -3.492244295555243E-005
                    38 -9.522220225365269E-004
                    39 -8.148859890488915E-004
                    40 -3.400911579471502E-005
                    41  4.437655899343159E-005
                    42  2.619517442884837E-003
                    43  2.237722372422344E-004
                    44 -5.682666935145823E-004
                    45  6.536629967346685E-005
                    46 -4.059750392952179E-004
                    47 -1.597252006327965E-005
                    48 -8.595594063912746E-005
                    49  5.463724307560078E-005
                    50 -1.828546443003500E-004
                    51 -4.370216425239747E-004
                    52  6.534075698381240E-006
                    53  8.633898407040927E-005
                    54  3.978129284446753E-005
                    55  1.232398120330596E-004
                    56  3.577141770623797E-006
                    57  1.098568853803905E-005
                    58  1.291173859071969E-004
                    59  4.339717682252133E-006
                    60 -4.503070878170465E-005
                    61 -1.600061090878492E-005
                    62 -7.460211710502244E-004
                    63  9.126191802706781E-004
                    64 -1.258613335468900E-004
                    65  2.618394221750140E-003
                    66 -4.131792295245351E-003
                    67 -2.621407179276333E-004
                    68  8.522645875136935E-004
                    69  5.495893826226738E-004
                    70 -2.623061276428171E-005
                    71  3.900004499074896E-004
                    72  8.894754067661416E-004
                    73  3.050932165577149E-004
                    74 -2.433710695140666E-003
                    75  1.455313978476077E-004
                    76 -6.651271270223717E-005
                    77 -3.347333642881885E-005
                    78 -1.360943392869513E-006
                    79  9.143774165792462E-006
                    80 -4.578937712167272E-005
                    81 -3.295026185515205E-004
                    82 -1.309916128620622E-006
                    83 -1.370010054283902E-005
                    84  4.464917586603056E-005
                    85 -2.395415954815443E-005
                    86 -1.437702105104098E-004
                    87 -7.484405167363190E-006
                    88 -1.288132171790256E-005
                    89  1.693846007819019E-005
                    90 -6.972603404259999E-005
                    91  6.883545122106799E-006
                    92  2.760674146051226E-005
                    93 -1.273642439047360E-003
                    94  2.482718406487982E-004
                    95 -8.480363635615807E-004
                    96 -1.089963252602649E-004
                    97 -2.233640751463726E-004
                    98  1.275981312378102E-003
                    99 -4.066290232734195E-005
                   100  1.026489822563110E-005
                   101  5.200001855940663E-006
                   102 -9.478027749540408E-004
                   103  3.894622137097732E-005
                   104 -7.809678137325660E-004
                   105 -6.103010877445289E-005
                   106  9.219838905460470E-007
                   107  7.651136132741530E-006
                   108  5.584627865218426E-005
                   109  3.904063290490910E-006
                   110  1.335300959583458E-004
                   111  4.158501483675404E-004
                   112  1.975010980547275E-006
                   113 -1.212174757859914E-004
                   114 -4.959457487628190E-005
                   115 -3.540511510795941E-005
                   116 -4.785605835984413E-006
                   117 -5.327409841420279E-006
                   118 -2.786949424230920E-005
                   119  8.491620999471382E-007
                   120  1.541842976886325E-005
                   121  1.237198583977366E-006
                   122 -2.628521206733456E-004
                   123 -2.040569075787452E-003
                   124  1.496867473239483E-004
                   125  4.432047223875953E-004
                   126  2.122346609959767E-003
                   127  9.804540836683702E-005
                   128 -1.761278719633887E-004
                   129  3.749174403543104E-004
                   130 -2.596002032043495E-005
                   131  2.960578318276175E-004
                   132  1.683652323699150E-004
                   133 -1.034648381093639E-004
                   134  1.004574511734468E-003
                   135  7.291009561872392E-005
                   136 -2.363453531825658E-005
                   137 -7.147440747648883E-006
                   138 -7.002214192051110E-005
                   139 -4.835078439016770E-007
                   140  1.934799164235841E-004
                   141  3.000582773854524E-005
                   142 -9.792721853271985E-006
                   143 -2.468517707396424E-004
                   144 -1.693397681917462E-005
                   145 -1.676513791353277E-006
                   146 -3.603189618742766E-005
                   147 -5.835974723869784E-006
                   148  2.273062998902688E-005
                   149 -2.662610897089012E-006
                   150 -7.493002110865110E-005
                   151  2.999860584634674E-006
                   152 -9.739916704770059E-005
                   153 -7.158253626832332E-005
                   154 -7.113178685871372E-005
                   155  7.706645698068707E-004
                   156  4.250971504704922E-004
                   157 -1.228236224025476E-005
                   158  2.058291643417555E-004
                   159 -3.750529105316928E-004
                   160 -3.814588669883719E-006
                   161 -8.762296470108744E-005
                   162  1.983408166667190E-004
                   163 -9.613534706763868E-005
                   164  1.026612512815245E-003
                   165  5.372457665765336E-006
                   166 -1.676137493720610E-005
                   167 -3.939886363498503E-006
                   168  1.766364263866616E-005
                   169  4.662123149134489E-006
                   170 -7.404538378487149E-005
                   171  1.928070499335661E-005
                   172  3.008465976998440E-005
                   173 -1.225137433085600E-004
                   174 -8.192367631010031E-006
                   175  5.967644235804672E-006
                   176 -1.974879107091764E-005
                   177  8.173224384870004E-007
                   178  3.968568358220784E-006
                   179  2.587769218354403E-006
                   180 -7.463902604007206E-006
                   181 -5.659387406836945E-007
                   182 -9.982577195767607E-005
                   183 -5.036060445382916E-005
                   184  2.096807053191158E-005
                   185  2.233159106634212E-004
                   186 -2.850555681160772E-004
                   187  3.143560311972182E-005
                   188 -1.428640473234835E-004
                   189  1.359449613591629E-004
                   190 -3.526056504364596E-005
                   191  3.484584044075832E-004
                   192 -4.297080701004997E-004
                   193 -5.533662291165066E-005
                   194  2.854907173610661E-004
                   195  3.347489123828431E-005
                   196 -1.753927100561224E-005
                   197 -5.691393441665792E-006
                   198 -1.623054243249734E-005
                   199  7.830444700104192E-007
                   200 -5.040969323423569E-006
                   201 -1.648481673618440E-004
                   202 -2.606104138161844E-006
                   203 -2.172365798623716E-005
                   204  1.868154896464586E-005
                   205 -2.282158389040181E-006
                   206  4.460861168348483E-006
                   207 -1.624834060688224E-006
                   208  7.605895659255726E-006
                   209 -9.849810224546158E-007
                   210 -5.114822854086088E-006
                   211 -6.820117761926584E-007
                   212 -1.816492874248340E-003
                   213  1.828888338811833E-003
                   214  1.831560424563325E-004
                   215 -9.586306979591422E-005
                   216  3.759009167939190E-004
                   217 -3.765140815411931E-003
                   218  2.581526633930295E-003
                   219  1.169126722951362E-004
                   220  1.446673497952323E-004
                   221  5.608426689094002E-004
                   222  2.159762908418166E-003
                   223 -2.292610082659631E-003
                   224  2.509355795538809E-005
                   225 -1.715195845059173E-005
                   226  1.516693150476447E-004
                   227  3.953816267034150E-004
                   228  5.009581053677294E-004
                   229 -5.465197785230683E-005
                   230  1.149624234574501E-005
                   231 -1.092555369383496E-004
                   232  9.107321391054652E-004
                   233  3.211355790596718E-004
                   234  5.455686425198253E-006
                   235 -5.560426778404270E-006
                   236  4.937753543976150E-005
                   237  2.776567856796057E-004
                   238 -8.367066996919826E-004
                   239 -4.730524122180503E-005
                   240  2.247298605978069E-006
                   241 -3.248736902586153E-005
                   242 -3.979099030625684E-004
                   243  2.601786751486755E-004
                   244  3.188680521743974E-005
                   245  2.309492684749394E-006
                   246 -5.607249107034883E-006
 Sym= __2_A__
 Ene=   2.00000000000000     
 Spin= Alpha
 Occup=    1.00000000000000     
                     1 -5.874360397040853E-005
                     2  1.826460797662602E-004
                     3 -1.514761100211720E-003
                     4 -1.267486335008416E-005
                     5  9.626845754598705E-004
                     6  1.594229411730968E-003
                     7 -1.986075165072118E-004
                     8  1.524742941535484E-003
                     9 -1.596674102774949E-004
                    10  9.478806109651682E-006
                    11 -1.578084471321875E-004
                    12  1.381534714517530E-004
                    13  2.263332373578931E-005
                    14 -1.735256807785240E-004
                    15 -4.171980828307425E-005
                    16  3.338025998519883E-005
                    17  1.366678199627481E-006
                    18  5.011923378859802E-005
                    19  5.824074745886021E-007
                    20  8.120695882182610E-005
                    21 -5.613202988985688E-005
                    22 -3.268929394392545E-005
                    23  8.774739314188936E-005
                    24  1.390402646999644E-005
                    25 -3.118725300741103E-005
                    26  1.272807866636492E-004
                    27  7.995498208324270E-006
                    28 -6.406657767391639E-005
                    29 -8.601685394781643E-006
                    30  1.162692449812888E-004
                    31 -8.528105955501062E-007
                    32   1.00083756903059     
                    33  8.442273499707789E-003
                    34  2.855514779670597E-003
                    35 -8.437075087957772E-003
                    36 -1.097844697991644E-003
                    37 -7.425057765152536E-005
                    38  1.060115375540990E-004
                    39  7.766391187017787E-004
                    40  9.005383720935119E-005
                    41 -4.874715605594894E-004
                    42  2.345092653645982E-003
                    43  1.857550893180277E-005
                    44  4.916589139319270E-004
                    45  3.282811725147556E-004
                    46 -2.640376648418020E-005
                    47 -1.057228013796905E-004
                    48  2.969655186348980E-004
                    49  1.996082385472683E-005
                    50 -1.027632709803880E-003
                    51 -4.336568611955103E-004
                    52  2.167081418807554E-004
                    53 -1.173642444636480E-004
                    54  4.442790507643756E-005
                    55 -2.281429770578505E-005
                    56  2.516733578746169E-004
                    57  7.141067682882156E-006
                    58 -3.087546639446570E-005
                    59 -4.021396794841472E-005
                    60  6.479097137136101E-005
                    61 -8.949173772239429E-007
                    62  1.630393672335160E-002
                    63 -1.236316451799728E-003
                    64 -2.889514633389960E-004
                    65  2.714338458015240E-003
                    66 -5.353544430300495E-004
                    67 -8.064025444130208E-005
                    68  5.030027954402472E-004
                    69  2.473276401813944E-005
                    70 -3.052976185783544E-005
                    71  2.555839660184984E-004
                    72  1.484633174077352E-004
                    73  2.177357299537071E-004
                    74 -1.786193156026985E-003
                    75  2.199816404768262E-005
                    76  2.529868395776941E-005
                    77  2.180330895167840E-006
                    78 -5.252546731273244E-005
                    79 -5.857680232456273E-006
                    80 -5.818087223413495E-004
                    81 -3.940848469815820E-004
                    82  1.014645568530335E-005
                    83  8.159320067828456E-004
                    84  9.494206106773662E-005
                    85  3.388389117463618E-005
                    86  1.061525590581850E-004
                    87  1.951346435890422E-005
                    88 -3.137539402816398E-005
                    89 -2.596581136016198E-005
                    90 -2.614037529893244E-005
                    91  7.141248057374748E-006
                    92  1.888905826213549E-002
                    93 -1.747993695717936E-003
                    94 -3.472040545693693E-004
                    95  3.433019137541310E-003
                    96 -2.960124627267846E-004
                    97  2.171611778851997E-005
                    98 -3.124690734964661E-004
                    99 -1.367404640890651E-004
                   100  9.529742388908405E-005
                   101 -8.337454971106701E-004
                   102  4.325008573248158E-004
                   103 -1.634132922909983E-004
                   104  1.457268467859679E-003
                   105  1.021104270453220E-005
                   106 -1.261649849836867E-006
                   107  6.196620332663396E-007
                   108 -2.153523935662188E-005
                   109 -1.016500082649916E-006
                   110 -1.315392325863980E-004
                   111  5.536883941788655E-004
                   112 -2.844956419275374E-005
                   113  6.126354752068373E-004
                   114 -2.931303209742383E-005
                   115 -4.397995443591696E-005
                   116  7.818042228191809E-005
                   117 -1.428917603499694E-005
                   118  1.587702696773098E-005
                   119 -1.824076763314402E-005
                   120 -2.746267693969717E-005
                   121 -1.253152370447485E-007
                   122 -3.237160279713227E-005
                   123 -7.819647667766989E-004
                   124  2.465594381180697E-004
                   125 -4.537738015604054E-004
                   126  4.927223110316042E-005
                   127  8.043113581804869E-006
                   128 -6.250442881678423E-005
                   129  6.203890781663117E-004
                   130  1.098544299532442E-005
                   131  5.987383401154180E-005
                   132  1.604295620616160E-004
                   133 -4.624982944953540E-005
                   134  4.329746705673716E-004
                   135  3.711844865442133E-006
                   136  3.415671226399659E-005
                   137  5.370902157500277E-006
                   138 -4.264249944307870E-005
                   139 -6.532932513219193E-006
                   140  1.841329820099368E-004
                   141 -3.150913243418893E-004
                   142 -2.181402487887780E-005
                   143 -2.146634503681050E-004
                   144  2.525803387290781E-005
                   145 -5.649582104717791E-006
                   146  1.049951224282711E-005
                   147 -1.623386872849055E-006
                   148  1.440476348718528E-006
                   149 -4.670068390867131E-006
                   150 -1.848840726991250E-005
                   151  1.416618120821765E-006
                   152  7.042007865849400E-005
                   153 -7.729616402067330E-004
                   154  2.280912197410213E-004
                   155 -1.213798300007393E-004
                   156 -4.965420000865860E-005
                   157 -9.456720241544042E-006
                   158  5.323678707931300E-005
                   159  4.686155553439627E-004
                   160  1.618376250430250E-005