===========================================================
===                   runc                              ===
===           version 7.0.2 , April 2021              ===
===          requires COLUMBUS version Col_7.0.2        ===
===                                                     ===
===   written by: Thomas Mueller                        ===
===   gradient ext. by: Michal Dallos                   ===
===               University of Vienna                  ===
===   maintained by: Felix Plasser                      ===
===               Loughborough University               ===
===========================================================


coremem. (seq.): 200000 MB,  coremem. (par.): 19000 MB
Vdisk size: 0 DP
Reading job control file control.run ... 
 ****** This is an 2c-QDPT MRCISD calculation ****** 
 model space size=4:0:4
SMOLCAS=/home-4/yshen57@jhu.edu/Software/Chemistry/Columbus-7.0.2_OpenMolcas-18.09-col/OpenMolcas/build
Found serial Molcas Installation at /home-4/yshen57@jhu.edu/Software/Chemistry/Columbus-7.0.2_OpenMolcas-18.09-col/OpenMolcas/build
  done 
INFO: keywords nadcoupl and seward are supported for DCI mode only!
seward specified, using also alaska
Creating various directories ... 
 done 
SMOLCAS=/home-4/yshen57@jhu.edu/Software/Chemistry/Columbus-7.0.2_OpenMolcas-18.09-col/OpenMolcas/build
PMOLCAS=
Checking for illegal keywords and keyword combinations ... done 

 Nonadiabatic coupling term calculation type: DCI+DCSF
  States involved in calcualtion:
   DRT1,state1;  DRT1,state2
   DRT1,state1;  DRT1,state3
   DRT1,state1;  DRT1,state4
   DRT1,state2;  DRT1,state3
   DRT1,state2;  DRT1,state4
   DRT1,state3;  DRT1,state4
   DRT2,state1;  DRT2,state2
   DRT2,state1;  DRT2,state3
   DRT2,state1;  DRT2,state4
   DRT2,state2;  DRT2,state3
   DRT2,state2;  DRT2,state4
   DRT2,state3;  DRT2,state4

Additional gradients computed:
   DRT1,state1
   DRT1,state2
   DRT1,state3
   DRT1,state4
   DRT2,state1
   DRT2,state2
   DRT2,state3
   DRT2,state4

Checking for complete set of input files ... 
mcscf calculation without preceeding scf calculation 
will use 
 /scratch/users/yshen57@jhu.edu/Molcas/linear-path/min-B1_min-B2/4/mrci/mocoef as starting MOs 
Performing coupled non-rel. SO-CI calculation, nrroots: 4 0 4
starting cidrt.x   -m 200000 < cidrtin > temp at Sun May 29 21:55:12 EDT 2022

 -------------------- cidrt.x ------------------------
 spatial symmetry:  
 total number of configurations          0
 number of reference configurations     0
 --------------------------------------------------- 
 Preparing SO cidrtin files for 1 symmetries
cat ../cidrtin | sed -e 's/^.*input the molecular spatial symmetry/1 \/ molsym/' > cidrtin.so_A 
calling cidrt.x -m 200000 < cidrtin.so_A > cidrtls.soci_A ...
Checking the DRTs for consistency ...
calling reindex.x -i 1 -m 200000  ...
done

 ++++++++++++++++++ input file generation +++++++++++++ 
 runc start: Sun May 29 21:55:32 EDT 2022
 
  runc start: Sun May 29 21:55:32 EDT 2022
 
 starting unik.gets.x > unikls at Sun May 29 21:55:32 EDT 2022

 -------------------- unik.gets.x ------------------------
 --------------------------------------------------- 
 ++++++++++++++++++++ ao integral calculation ++++++++++++++++
starting pymolcas molcas.input.seward > molcas.output.seward  at Sun May 29 21:55:32 EDT 2022

Generating link ln -s ./molcas.OrdInt ORDINT 
 -------------------- seward ------------------------
      Basis set label: N.ANILINE.........
      Basis set label: C.ANILINE.........
      Basis set label: H.ANILINE.........
  Nuclear Coordinates in                   atomic units                                   Angstrom 
     Center  Label                x              y              z                     x              y              z
        1      N1              -4.376046       0.251533       0.000663             -2.315704       0.133105       0.000351
        2      C2              -1.781213       0.071147       0.000587             -0.942577       0.037649       0.000311
        3      C3              -0.461839       0.055407      -2.350470             -0.244395       0.029320      -1.243815
        4      C4              -0.461907       0.052465       2.351660             -0.244431       0.027763       1.244445
        5      C5               2.202823      -0.010739      -2.323603              1.165684      -0.005683      -1.229598
        6      C6               2.202757      -0.013648       2.324787              1.165649      -0.007222       1.230225
        7      C7               3.499364      -0.048235       0.000588              1.851783      -0.025525       0.000311
        8      H8              -5.297578      -0.250735      -1.612118             -2.803358      -0.132683      -0.853096
        9      H9              -5.297624      -0.252753       1.612787             -2.803382      -0.133751       0.853450
       10      H10             -1.497086       0.102645      -4.087335             -0.792224       0.054318      -2.162925
       11      H11             -1.497203       0.097529       4.088554             -0.792286       0.051610       2.163569
       12      H12              3.240765      -0.032599      -4.061095              1.714939      -0.017251      -2.149039
       13      H13              3.240649      -0.037683       4.062280              1.714877      -0.019941       2.149666
       14      H14              5.527582      -0.095758       0.000587              2.925070      -0.050673       0.000311
 
            Nuclear Potential Energy            269.74862543 au
 --------------------------------------------------- 
  >>>>>>>>>>>>> info: preparing drt no 1 out of 1 <<<<<<
starting mcdrt.x -m 200000 < mcdrtin > mcdrtls at Sun May 29 22:01:22 EDT 2022

 -------------------- mcdrt.x ------------------------
  Spin multiplicity: singlet 
  Spatial symmetry (#): 1
  Number of Configurations:       1275 
  --------------------------------------------------- 
 starting mcuft.x at Sun May 29 22:01:22 EDT 2022

 -------------------- mcuft.x ------------------------
 --------------------------------------------------- 
 ++++++++++++++++++++ MCSCF calculation +++++++++++++++
info: taking mocoef file from /scratch/users/yshen57@jhu.edu/Molcas/linear-path/min-B1_min-B2/4/mrci/mocoef
adding flag 30 to mcscfin
Writing mcdenin files for mcscf.x for 1 DRTs
adding flag 26 to mcscfin
starting mcscf.x -m 200000 at Sun May 29 22:01:23 EDT 2022

 -------------------- mcscf.x ------------------------
 Individual total energies for all states: 
    DRT #1 state # 1 wt 0.250 total energy=     -285.902787538, rel. (eV)=   0.000000
    DRT #1 state # 2 wt 0.250 total energy=     -285.699723979, rel. (eV)=   5.525643
    DRT #1 state # 3 wt 0.250 total energy=     -285.681854892, rel. (eV)=   6.011886
    DRT #1 state # 4 wt 0.250 total energy=     -285.636072908, rel. (eV)=   7.257677
  --------------------------------------------------- 
 starting mcpc.x -m 200000 < mcpcin > mcpcls at Sun May 29 22:04:24 EDT 2022

 -------------------- mcpc.x ------------------------
 --------------------------------------------------- 
 starting mcpc.x -m 200000 < mcpcin > mcpcls at Sun May 29 22:04:24 EDT 2022

 -------------------- mcpc.x ------------------------
 --------------------------------------------------- 
 starting mcpc.x -m 200000 < mcpcin > mcpcls at Sun May 29 22:04:24 EDT 2022

 -------------------- mcpc.x ------------------------
 --------------------------------------------------- 
 starting mcpc.x -m 200000 < mcpcin > mcpcls at Sun May 29 22:04:24 EDT 2022

 -------------------- mcpc.x ------------------------
 --------------------------------------------------- 
 
========= state properties for state-averaged MCSCF =========
mcscf.drt1.st01.sp
starting exptvl.x -m 200000   at Sun May 29 22:04:25 EDT 2022

 -------------------- exptvl.x ------------------------
  === dipole moment === 
                     X               Y               Z   
   orign x       0.00000000      0.00000000      0.00000000
   orign y       0.00000000      0.00000000      0.00000000
   orign z       0.00000000      0.00000000      0.00000000
   nuclear      -1.01291011      1.92975899      0.02959320
   electronic    0.25125557     -2.24406744     -0.02980082
   total        -0.76165454     -0.31430845     -0.00020762
   total Dipole moment =   2.09429549    Debye
 --------------------------------------------------- 
 mcscf.drt1.st02.sp
starting exptvl.x -m 200000   at Sun May 29 22:04:25 EDT 2022

 -------------------- exptvl.x ------------------------
  === dipole moment === 
                     X               Y               Z   
   orign x       0.00000000      0.00000000      0.00000000
   orign y       0.00000000      0.00000000      0.00000000
   orign z       0.00000000      0.00000000      0.00000000
   nuclear      -1.01291011      1.92975899      0.02959320
   electronic    4.62718912     -2.33540921     -0.02979514
   total         3.61427901     -0.40565022     -0.00020194
   total Dipole moment =   9.24426980    Debye
 --------------------------------------------------- 
 mcscf.drt1.st03.sp
starting exptvl.x -m 200000   at Sun May 29 22:04:25 EDT 2022

 -------------------- exptvl.x ------------------------
  === dipole moment === 
                     X               Y               Z   
   orign x       0.00000000      0.00000000      0.00000000
   orign y       0.00000000      0.00000000      0.00000000
   orign z       0.00000000      0.00000000      0.00000000
   nuclear      -1.01291011      1.92975899      0.02959320
   electronic   -0.15705565     -2.19054300     -0.02977320
   total        -1.16996576     -0.26078401     -0.00018000
   total Dipole moment =   3.04673784    Debye
 --------------------------------------------------- 
 mcscf.drt1.st04.sp
starting exptvl.x -m 200000   at Sun May 29 22:04:25 EDT 2022

 -------------------- exptvl.x ------------------------
  === dipole moment === 
                     X               Y               Z   
   orign x       0.00000000      0.00000000      0.00000000
   orign y       0.00000000      0.00000000      0.00000000
   orign z       0.00000000      0.00000000      0.00000000
   nuclear      -1.01291011      1.92975899      0.02959320
   electronic    5.58266362     -2.39897487     -0.02982117
   total         4.56975351     -0.46921588     -0.00022797
   total Dipole moment =  11.67623462    Debye
 --------------------------------------------------- 
  using the MCSCF MOs ... 
starting cidrt.x  -m 200000 < cidrtin.1 > cidrtls at Sun May 29 22:04:26 EDT 2022

 -------------------- cidrt.x ------------------------
 total number of orbitals            :   246
 number of frozen core orbitals      :    18
 number of frozen virtual orbitals   :     0
 number of internal orbitals         :    14
 number of external orbitals         :   214
 spatial symmetry:   a  
 
 total number of configurations  158587185
 number of reference configurations  1275
 --------------------------------------------------- 
 starting cidrt.x  -m 200000 < cidrtin.2 > cidrtls at Sun May 29 22:04:28 EDT 2022

 -------------------- cidrt.x ------------------------
 total number of orbitals            :   246
 number of frozen core orbitals      :    18
 number of frozen virtual orbitals   :     0
 number of internal orbitals         :    14
 number of external orbitals         :   214
 spatial symmetry:   a  
 
 total number of configurations  282461366
 number of reference configurations  1666
 --------------------------------------------------- 
 starting tran.x -m 200000  at Sun May 29 22:04:34 EDT 2022

 -------------------- tran.x ------------------------
 --------------------------------------------------- 
  Starting ciudgav with DRT # 1 out of 2 

 *** starting pciudg section *** 
nproc: 48 machinefile:  
assuming machinefile syntax: one host name per line optionally repeated
 section2, MPI_STARTUP:
 /software/apps/mpi/openmpi/3.1/intel/18.0/bin/mpirun -np 48  /home-4/yshen57@jhu.edu/Software/Chemistry/Columbus-7.0.2_OpenMolcas-18.09-col/Columbus/pciudg.x -m 19000 
 -------------------- pciudg.x ------------------------
 type of calculation:          mr-sdci
 number of configurations:     158587185
 total mr-sdci energy             -286.0997158305 
 last mr-sdci energy change          -0.0000000000 
 residual                             0.0000083091 
  type of calculation:          mr-sdci
 number of configurations:     158587185
 total mr-sdci energy             -285.9340663433 
 last mr-sdci energy change           0.0000000000 
 residual                             0.0000096832 
  type of calculation:          mr-sdci
 number of configurations:     158587185
 total mr-sdci energy             -285.9257070962 
 last mr-sdci energy change           0.0000000000 
 residual                             0.0000090623 
  type of calculation:          mr-sdci
 number of configurations:     158587185
 total mr-sdci energy             -285.8707371227 
 last mr-sdci energy change           0.0000000000 
 residual                             0.0000059769 
  --------------------------------------------------- 
 keyinfile returned docipci=0:
starting cipc.x -m 200000 < cipcin > cipcls at Mon May 30 14:18:00 EDT 2022

 -------------------- cipc.x ------------------------
 --------------------------------------------------- 
  Starting ciudgav with DRT # 2 out of 2 

 *** starting pciudg section *** 
nproc: 48 machinefile:  
assuming machinefile syntax: one host name per line optionally repeated
 section2, MPI_STARTUP:
 /software/apps/mpi/openmpi/3.1/intel/18.0/bin/mpirun -np 48  /home-4/yshen57@jhu.edu/Software/Chemistry/Columbus-7.0.2_OpenMolcas-18.09-col/Columbus/pciudg.x -m 19000 
 -------------------- pciudg.x ------------------------
 type of calculation:          mr-sdci
 number of configurations:     282461366
 total mr-sdci energy             -285.9526804874 
 last mr-sdci energy change           0.0000000000 
 residual                             0.0000078016 
  type of calculation:          mr-sdci
 number of configurations:     282461366
 total mr-sdci energy             -285.9415075702 
 last mr-sdci energy change           0.0000000001 
 residual                             0.0000091500 
  type of calculation:          mr-sdci
 number of configurations:     282461366
 total mr-sdci energy             -285.9365374065 
 last mr-sdci energy change          -0.0000000000 
 residual                             0.0000077591 
  type of calculation:          mr-sdci
 number of configurations:     282461366
 total mr-sdci energy             -285.9245847736 
 last mr-sdci energy change           0.0000000000 
 residual                             0.0000062716 
  --------------------------------------------------- 
 keyinfile returned docipci=0:
starting cipc.x -m 200000 < cipcin > cipcls at Wed Jun  1 03:37:01 EDT 2022

 -------------------- cipc.x ------------------------
 --------------------------------------------------- 
 Reindex call
run_socinr: imult=1 irrep=1 
opening file =ciudgls.drt1.sp
opening file =ciudgls.drt1.sp
opening file =ciudgls.drt1.sp
opening file =ciudgls.drt1.sp
run_socinr: imult=3 irrep=1 
opening file =ciudgls.drt2.sp
opening file =ciudgls.drt2.sp
opening file =ciudgls.drt2.sp
opening file =ciudgls.drt2.sp
 copying /scratch/users/yshen57@jhu.edu/Molcas/linear-path/min-B1_min-B2/4/mrci/cidrtfl.so__A --> cidrtfl.so__A 
 copying /scratch/users/yshen57@jhu.edu/Molcas/linear-path/min-B1_min-B2/4/mrci/cidrtfl.so__A --> cidrtfl.so__A 
starting reindex.x -m 200000 > reindexls at Wed Jun  1 03:37:23 EDT 2022

 -------------------- reindex.x ------------------------
 --------------------------------------------------- 
 1      1        1           civfl_1_A             1      1    0+       1             1         civfl.so__A
1      1        2           civfl_1_A             1      1    0+       2    1005971284         civfl.so__A
1      1        3           civfl_1_A             1      1    0+       3    2011942567         civfl.so__A
1      1        4           civfl_1_A             1      1    0+       4    3017913850         civfl.so__A
3      1        1           civfl_3_A             1      3    0+       5    4023885133         civfl.so__A
3      1        1           civfl_3_A             1      3    1+       6    5029856416         civfl.so__A
3      1        1           civfl_3_A             1      3    1-       7    6035827699         civfl.so__A
3      1        2           civfl_3_A             1      3    0+       8    7041798982         civfl.so__A
3      1        2           civfl_3_A             1      3    1+       9    8047770265         civfl.so__A
3      1        2           civfl_3_A             1      3    1-      10    9053741548         civfl.so__A
3      1        3           civfl_3_A             1      3    0+      11   10059712831         civfl.so__A
3      1        3           civfl_3_A             1      3    1+      12   11065684114         civfl.so__A
3      1        3           civfl_3_A             1      3    1-      13   12071655397         civfl.so__A
3      1        4           civfl_3_A             1      3    0+      14   13077626680         civfl.so__A
3      1        4           civfl_3_A             1      3    1+      15   14083597963         civfl.so__A
3      1        4           civfl_3_A             1      3    1-      16   15089569246         civfl.so__A
 Executing ciudg.x  for gamma =A ...

 *** starting pciudg section *** 
nproc: 48 machinefile:  
assuming machinefile syntax: one host name per line optionally repeated
 section2, MPI_STARTUP:
 /software/apps/mpi/openmpi/3.1/intel/18.0/bin/mpirun -np 48  /home-4/yshen57@jhu.edu/Software/Chemistry/Columbus-7.0.2_OpenMolcas-18.09-col/Columbus/pciudg.x -m 19000 
 -------------------- pciudg.x ------------------------
 type of calculation:          mr-sdci
 number of configurations:     1005971283
 total mr-sdci energy             -286.0997158334 
 last mr-sdci energy change           0.0000000029 
 residual                            36.1450000000 
  type of calculation:          mr-sdci
 number of configurations:     1005971283
 total mr-sdci energy             -285.9526804964 
 last mr-sdci energy change           0.0186140000 
 residual                            35.9980000000 
  type of calculation:          mr-sdci
 number of configurations:     1005971283
 total mr-sdci energy             -285.9526804962 
 last mr-sdci energy change           0.0269730000 
 residual                            35.9980000000 
  type of calculation:          mr-sdci
 number of configurations:     1005971283
 total mr-sdci energy             -285.9526804939 
 last mr-sdci energy change           0.0819430000 
 residual                            35.9980000000 
  type of calculation:          mr-sdci
 number of configurations:     1005971283
 total mr-sdci energy             -285.9415075717 
 last mr-sdci energy change          -0.0111730000 
 residual                            35.9870000000 
  type of calculation:          mr-sdci
 number of configurations:     1005971283
 total mr-sdci energy             -285.9415075711 
 last mr-sdci energy change          -0.0111730000 
 residual                            35.9870000000 
  type of calculation:          mr-sdci
 number of configurations:     1005971283
 total mr-sdci energy             -285.9415075706 
 last mr-sdci energy change          -0.0111730000 
 residual                            35.9870000000 
  type of calculation:          mr-sdci
 number of configurations:     1005971283
 total mr-sdci energy             -285.9365374032 
 last mr-sdci energy change          -0.0049702000 
 residual                            35.9820000000 
  type of calculation:          mr-sdci
 number of configurations:     1005971283
 total mr-sdci energy             -285.9365374012 
 last mr-sdci energy change          -0.0049702000 
 residual                            35.9820000000 
  type of calculation:          mr-sdci
 number of configurations:     1005971283
 total mr-sdci energy             -285.9365373998 
 last mr-sdci energy change          -0.0049702000 
 residual                            35.9820000000 
  type of calculation:          mr-sdci
 number of configurations:     1005971283
 total mr-sdci energy             -285.9340663390 
 last mr-sdci energy change          -0.0024711000 
 residual                            35.9800000000 
  type of calculation:          mr-sdci
 number of configurations:     1005971283
 total mr-sdci energy             -285.9257070953 
 last mr-sdci energy change          -0.0108300000 
 residual                            35.9710000000 
  type of calculation:          mr-sdci
 number of configurations:     1005971283
 total mr-sdci energy             -285.9245847709 
 last mr-sdci energy change          -0.0119530000 
 residual                            35.9700000000 
  type of calculation:          mr-sdci
 number of configurations:     1005971283
 total mr-sdci energy             -285.9245847707 
 last mr-sdci energy change          -0.0000000029 
 residual                            35.9700000000 
  type of calculation:          mr-sdci
 number of configurations:     1005971283
 total mr-sdci energy             -285.9245847704 
 last mr-sdci energy change          -0.0000000032 
 residual                            35.9700000000 
  type of calculation:          mr-sdci
 number of configurations:     1005971283
 total mr-sdci energy             -285.8707371221 
 last mr-sdci energy change          -0.0538480000 
 residual                            35.9160000000 
  --------------------------------------------------- 
 ************* Results for Spin-Orbit CI gamma=A **************** 
Final spin-orbit CI state energies: 


-------------- HT matrix in AU ----------------  
-36.145403    
 0.000000    -35.979753    
 0.000000     0.000000    -35.971394    
 0.000000     0.000000     0.000000    -35.916424    
-0.000004     0.000011     0.000000     0.000000    -35.998368    
 0.000000    -0.000000     0.000000     0.000000     0.000000    -35.998368    
 0.000000    -0.000000     0.000003    -0.000002     0.000000     0.000000    -35.998368    
 0.000000     0.000000     0.000000     0.000006     0.000000    -0.000001     0.000000    -35.987195    
 0.000000     0.000001    -0.000000    -0.000000     0.000001     0.000000    -0.000000     0.000000    -35.987195    
 0.000004    -0.000002    -0.000000    -0.000000    -0.000000     0.000000     0.000000     0.000000     0.000000    -35.987195    
 0.000021     0.000001    -0.000000     0.000000     0.000000     0.000000    -0.000000     0.000000     0.000002     0.000001    -35.982225    
-0.000000    -0.000000    -0.000001     0.000000    -0.000000     0.000000    -0.000012    -0.000002     0.000000    -0.000000     0.000000    -35.982225    
-0.000000    -0.000000     0.000003    -0.000001     0.000000     0.000012     0.000000    -0.000001     0.000000     0.000000     0.000000     0.000000    -35.982225    
 0.000000    -0.000005     0.000000     0.000000     0.000000    -0.000000     0.000000     0.000000    -0.000002     0.000000     0.000000     0.000000    -0.000000    -35.970272    
-0.000000     0.000000     0.000000     0.000000     0.000000     0.000000     0.000001     0.000002     0.000000    -0.000000    -0.000000     0.000000    -0.000006     0.000000    -35.970272    
-0.000000     0.000000     0.000000    -0.000001    -0.000000    -0.000001     0.000000    -0.000000     0.000000     0.000000     0.000000     0.000006     0.000000    -0.000000     0.000000    -35.970272    
-------------- HT matrix in eV ---------------- 
 -983.566   
    0.000    -979.059   
    0.000       0.000    -978.831   
    0.000       0.000       0.000    -977.336   
   -0.000       0.000       0.000       0.000    -979.565   
    0.000      -0.000       0.000       0.000       0.000    -979.565   
    0.000      -0.000       0.000      -0.000       0.000       0.000    -979.565   
    0.000       0.000       0.000       0.000       0.000      -0.000       0.000    -979.261   
    0.000       0.000      -0.000      -0.000       0.000       0.000      -0.000       0.000    -979.261   
    0.000      -0.000      -0.000      -0.000      -0.000       0.000       0.000       0.000       0.000    -979.261   
    0.001       0.000      -0.000       0.000       0.000       0.000      -0.000       0.000       0.000       0.000    -979.126   
   -0.000      -0.000      -0.000       0.000      -0.000       0.000      -0.000      -0.000       0.000      -0.000       0.000    -979.126   
   -0.000      -0.000       0.000      -0.000       0.000       0.000       0.000      -0.000       0.000       0.000       0.000       0.000    -979.126   
    0.000      -0.000       0.000       0.000       0.000      -0.000       0.000       0.000      -0.000       0.000       0.000       0.000      -0.000    -978.801   
   -0.000       0.000       0.000       0.000       0.000       0.000       0.000       0.000       0.000      -0.000      -0.000       0.000      -0.000       0.000    -978.801   
   -0.000       0.000       0.000      -0.000      -0.000      -0.000       0.000      -0.000       0.000       0.000       0.000       0.000       0.000      -0.000       0.000    -978.801   
-------------- HT matrix in cm-1 ------------------- 
Eref = -36.14540298
     0.00   
     0.00    36355.92   
     0.00        0.00    38190.57   
     0.00        0.00        0.00    50255.10   
    -0.88        2.43        0.00        0.00    32270.58   
     0.00       -0.00        0.09        0.02        0.00    32270.58   
     0.00        0.00        0.55       -0.37        0.00        0.00    32270.58   
     0.00        0.00        0.00        1.35        0.00       -0.18        0.04    34722.76   
     0.11        0.15        0.00        0.00        0.18        0.00        0.00        0.00    34722.76   
     0.92       -0.38        0.00        0.00       -0.04        0.00        0.00        0.00        0.00    34722.76   
     4.55        0.12        0.00        0.00        0.00        0.00       -0.00        0.00        0.40        0.16    35813.59   
    -0.00        0.00       -0.16        0.03        0.00        0.00       -2.59       -0.40        0.00        0.00        0.00    35813.59   
     0.00        0.00        0.58       -0.21        0.00        2.59        0.00       -0.16        0.00        0.00        0.00        0.00    35813.59   
     0.05       -1.15        0.00        0.00        0.00        0.00        0.00        0.00       -0.45        0.05        0.00        0.00        0.00    38436.89   
     0.00        0.00        0.00        0.08        0.00        0.00        0.21        0.45        0.00        0.00        0.00        0.00       -1.24        0.00    38436.89   
     0.00        0.00        0.00       -0.25        0.00       -0.21        0.00       -0.05        0.00        0.00        0.00        1.24        0.00        0.00        0.00    38436.89   


Spin-Orbit CI: perturbational estimate of Spin-Orbit CI energies and wavefunctions 
                SO   1         SO   2         SO   3         SO   4         SO   5         SO   6         SO   7         SO   8

   energy  -286.09971583  -285.95268050  -285.95268050  -285.95268049  -285.94150757  -285.94150757  -285.94150757  -285.93653740
 
   NR   1    -0.99999999     0.00000000    -0.00000000    -0.00002723     0.00000000    -0.00000669    -0.00002579     0.00012716
   NR   2     0.00000000     0.00000000     0.00000000    -0.00059507     0.00000000     0.00005756    -0.00024439    -0.00021935
   NR   3     0.00000000    -0.00009458     0.00000538    -0.00000000     0.00000126    -0.00000000     0.00000000    -0.00000000
   NR   4    -0.00000000     0.00002052     0.00000359    -0.00000000     0.00008657    -0.00000000     0.00000000     0.00000000
   NR   5    -0.00002723     0.00008397    -0.00062029     0.99999962     0.00000005    -0.00007062     0.00002748    -0.00000017
   NR   6     0.00000002     0.11145705    -0.99376878    -0.00062578     0.00007371     0.00000004    -0.00000002     0.00000000
   NR   7     0.00000000     0.99376897     0.11145708    -0.00001431    -0.00001721     0.00000000    -0.00000000     0.00000000
   NR   8     0.00000000    -0.00000914    -0.00007530    -0.00000005    -0.99999971    -0.00062156     0.00006576     0.00000023
   NR   9     0.00000308     0.00000001     0.00000005    -0.00007382     0.00062466    -0.99023015     0.13944065     0.00036172
   NR  10     0.00002648     0.00000000     0.00000000     0.00001751     0.00002156    -0.13944064    -0.99023039     0.00014256
   NR  11     0.00012716     0.00000045     0.00000006     0.00000006    -0.00000023     0.00037808     0.00009068     0.99999970
   NR  12    -0.00000008     0.00072784     0.00008164     0.00000000    -0.00036177    -0.00000024    -0.00000006    -0.00062583
   NR  13    -0.00000000    -0.00008163     0.00072784     0.00000000    -0.00014240    -0.00000001    -0.00000000    -0.00001416
   NR  14     0.00000139    -0.00000002    -0.00000000    -0.00000012     0.00000008    -0.00011869     0.00002980    -0.00000004
   NR  15    -0.00000000    -0.00003318    -0.00000357     0.00000000     0.00012167     0.00000007    -0.00000002     0.00000000
   NR  16    -0.00000000     0.00000357    -0.00003318     0.00000000    -0.00001290     0.00000000    -0.00000000     0.00000000

                SO   9         SO  10         SO  11         SO  12         SO  13         SO  14         SO  15         SO  16

   energy  -285.93653740  -285.93653740  -285.93406634  -285.92570710  -285.92458477  -285.92458477  -285.92458477  -285.87073712
 
   NR   1     0.00000000     0.00000000     0.00000001     0.00000000    -0.00000000     0.00000000    -0.00000139     0.00000000
   NR   2    -0.00000000    -0.00000000     0.99999961     0.00000000     0.00000000    -0.00000001     0.00055311    -0.00000000
   NR   3     0.00025334     0.00001344    -0.00000000     0.99999996     0.00001829    -0.00001714    -0.00000000     0.00000000
   NR   4    -0.00001422    -0.00000284    -0.00000000     0.00000001     0.00002031     0.00000855     0.00000000    -1.00000000
   NR   5    -0.00000044    -0.00000014     0.00059508     0.00000001    -0.00000002    -0.00000000     0.00000022    -0.00000000
   NR   6    -0.00069475    -0.00023185    -0.00000037     0.00001606    -0.00003330    -0.00000209    -0.00000000    -0.00000126
   NR   7    -0.00023179     0.00069476    -0.00000001     0.00009344     0.00000210    -0.00003331    -0.00000000     0.00002079
   NR   8     0.00002048     0.00038819     0.00000005     0.00000125    -0.00000468    -0.00012235     0.00000007    -0.00008657
   NR   9    -0.00000001    -0.00000024     0.00009104    -0.00000000     0.00000000     0.00000007     0.00012174     0.00000005
   NR  10    -0.00000000    -0.00000001    -0.00023393    -0.00000000     0.00000000     0.00000000    -0.00001309     0.00000000
   NR  11     0.00018464    -0.00059814     0.00021935    -0.00000004     0.00000029     0.00000003     0.00000004    -0.00000000
   NR  12     0.31649508    -0.94859347    -0.00000014    -0.00006737     0.00047083     0.00003249     0.00000000    -0.00000181
   NR  13    -0.94859370    -0.31649511    -0.00000000     0.00024457    -0.00003247     0.00047083     0.00000001     0.00001438
   NR  14    -0.00000028    -0.00000009     0.00055313    -0.00000001     0.00005675    -0.00060324    -0.99999966    -0.00000000
   NR  15    -0.00044767    -0.00014949    -0.00000035    -0.00001825     0.06873708    -0.99763451     0.00060572    -0.00000711
   NR  16    -0.00014942     0.00044767    -0.00000001    -0.00001704     0.99763470     0.06873710     0.00001516     0.00002085
rescaling new expansion vector ... old norm=   4411.9837693343

 model space basis from reindexls .. 
 --SO-CI-------         -----NR-CI-------             ---model space---- 
 Gamma  root             S   irrep   root                S   ms* 
A          1             1   A         1                 1   0+
A          2             1   A         2                 1   0+
A          3             1   A         3                 1   0+
A          4             1   A         4                 1   0+
A          5             3   A         1                 3   0+
A          6             3   A         1                 3   1+
A          7             3   A         1                 3   1-
A          8             3   A         2                 3   0+
A          9             3   A         2                 3   1+
A         10             3   A         2                 3   1-
A         11             3   A         3                 3   0+
A         12             3   A         3                 3   1+
A         13             3   A         3                 3   1-
A         14             3   A         4                 3   0+
A         15             3   A         4                 3   1+
A         16             3   A         4                 3   1-

************************** SUMMARY *********************************

--------------  SO matrix for irrep A in eV ---------------- 
|1,0+;1,A,1>  -983.566   
|1,0+;1,A,2>     0.000    -979.059   
|1,0+;1,A,3>     0.000       0.000    -978.831   
|1,0+;1,A,4>     0.000       0.000       0.000    -977.336   
|3,0+;3,A,1>    -0.000       0.000       0.000       0.000    -979.565   
|3,1+;3,A,1>     0.000      -0.000       0.000       0.000       0.000    -979.565   
|3,1-;3,A,1>     0.000      -0.000       0.000      -0.000       0.000       0.000    -979.565   
|3,0+;3,A,2>     0.000       0.000       0.000       0.000       0.000      -0.000       0.000    -979.261   
|3,1+;3,A,2>     0.000       0.000      -0.000      -0.000       0.000       0.000      -0.000       0.000    -979.261   
|3,1-;3,A,2>     0.000      -0.000      -0.000      -0.000      -0.000       0.000       0.000       0.000       0.000    -979.261   
|3,0+;3,A,3>     0.001       0.000      -0.000       0.000       0.000       0.000      -0.000       0.000       0.000       0.000    -979.126   
|3,1+;3,A,3>    -0.000      -0.000      -0.000       0.000      -0.000       0.000      -0.000      -0.000       0.000      -0.000       0.000    -979.126   
|3,1-;3,A,3>    -0.000      -0.000       0.000      -0.000       0.000       0.000       0.000      -0.000       0.000       0.000       0.000       0.000    -979.126   
|3,0+;3,A,4>     0.000      -0.000       0.000       0.000       0.000      -0.000       0.000       0.000      -0.000       0.000       0.000       0.000      -0.000    -978.801   
|3,1+;3,A,4>    -0.000       0.000       0.000       0.000       0.000       0.000       0.000       0.000       0.000      -0.000      -0.000       0.000      -0.000       0.000    -978.801   
|3,1-;3,A,4>    -0.000       0.000       0.000      -0.000      -0.000      -0.000       0.000      -0.000       0.000       0.000       0.000       0.000       0.000      -0.000       0.000    -978.801   

--------------  SO matrix for irrep A in cm-1 ------------------- 
Eref = -36.14540298
|1,0+;1,A,1>      0.00   
|1,0+;1,A,2>      0.00    36355.92   
|1,0+;1,A,3>      0.00        0.00    38190.57   
|1,0+;1,A,4>      0.00        0.00        0.00    50255.10   
|3,0+;3,A,1>     -0.88        2.43        0.00        0.00    32270.58   
|3,1+;3,A,1>      0.00       -0.00        0.09        0.02        0.00    32270.58   
|3,1-;3,A,1>      0.00        0.00        0.55       -0.37        0.00        0.00    32270.58   
|3,0+;3,A,2>      0.00        0.00        0.00        1.35        0.00       -0.18        0.04    34722.76   
|3,1+;3,A,2>      0.11        0.15        0.00        0.00        0.18        0.00        0.00        0.00    34722.76   
|3,1-;3,A,2>      0.92       -0.38        0.00        0.00       -0.04        0.00        0.00        0.00        0.00    34722.76   
|3,0+;3,A,3>      4.55        0.12        0.00        0.00        0.00        0.00       -0.00        0.00        0.40        0.16    35813.59   
|3,1+;3,A,3>     -0.00        0.00       -0.16        0.03        0.00        0.00       -2.59       -0.40        0.00        0.00        0.00    35813.59   
|3,1-;3,A,3>      0.00        0.00        0.58       -0.21        0.00        2.59        0.00       -0.16        0.00        0.00        0.00        0.00    35813.59   
|3,0+;3,A,4>      0.05       -1.15        0.00        0.00        0.00        0.00        0.00        0.00       -0.45        0.05        0.00        0.00        0.00    38436.89   
|3,1+;3,A,4>      0.00        0.00        0.00        0.08        0.00        0.00        0.21        0.45        0.00        0.00        0.00        0.00       -1.24        0.00    38436.89   
|3,1-;3,A,4>      0.00        0.00        0.00       -0.25        0.00       -0.21        0.00       -0.05        0.00        0.00        0.00        1.24        0.00        0.00        0.00    38436.89   


 ** perturbational estimate of Spin-Orbit CI energies and wavefunctions in model space basis** 

                      A  1         A  2         A  3         A  4         A  5         A  6         A  7         A  8

            energy  -286.09971583  -285.95268050  -285.95268050  -285.95268049  -285.94150757  -285.94150757  -285.94150757  -285.93653740
          
   |1,0+;1,A,1>    -0.99999999     0.00000000    -0.00000000    -0.00002723     0.00000000    -0.00000669    -0.00002579     0.00012716
   |1,0+;1,A,2>     0.00000000     0.00000000     0.00000000    -0.00059507     0.00000000     0.00005756    -0.00024439    -0.00021935
   |1,0+;1,A,3>     0.00000000    -0.00009458     0.00000538    -0.00000000     0.00000126    -0.00000000     0.00000000    -0.00000000
   |1,0+;1,A,4>    -0.00000000     0.00002052     0.00000359    -0.00000000     0.00008657    -0.00000000     0.00000000     0.00000000
   |3,0+;3,A,1>    -0.00002723     0.00008397    -0.00062029     0.99999962     0.00000005    -0.00007062     0.00002748    -0.00000017
   |3,1+;3,A,1>     0.00000002     0.11145705    -0.99376878    -0.00062578     0.00007371     0.00000004    -0.00000002     0.00000000
   |3,1-;3,A,1>     0.00000000     0.99376897     0.11145708    -0.00001431    -0.00001721     0.00000000    -0.00000000     0.00000000
   |3,0+;3,A,2>     0.00000000    -0.00000914    -0.00007530    -0.00000005    -0.99999971    -0.00062156     0.00006576     0.00000023
   |3,1+;3,A,2>     0.00000308     0.00000001     0.00000005    -0.00007382     0.00062466    -0.99023015     0.13944065     0.00036172
   |3,1-;3,A,2>     0.00002648     0.00000000     0.00000000     0.00001751     0.00002156    -0.13944064    -0.99023039     0.00014256
   |3,0+;3,A,3>     0.00012716     0.00000045     0.00000006     0.00000006    -0.00000023     0.00037808     0.00009068     0.99999970
   |3,1+;3,A,3>    -0.00000008     0.00072784     0.00008164     0.00000000    -0.00036177    -0.00000024    -0.00000006    -0.00062583
   |3,1-;3,A,3>    -0.00000000    -0.00008163     0.00072784     0.00000000    -0.00014240    -0.00000001    -0.00000000    -0.00001416
   |3,0+;3,A,4>     0.00000139    -0.00000002    -0.00000000    -0.00000012     0.00000008    -0.00011869     0.00002980    -0.00000004
   |3,1+;3,A,4>    -0.00000000    -0.00003318    -0.00000357     0.00000000     0.00012167     0.00000007    -0.00000002     0.00000000
   |3,1-;3,A,4>    -0.00000000     0.00000357    -0.00003318     0.00000000    -0.00001290     0.00000000    -0.00000000     0.00000000

                      A  9         A 10         A 11         A 12         A 13         A 14         A 15         A 16

            energy  -285.93653740  -285.93653740  -285.93406634  -285.92570710  -285.92458477  -285.92458477  -285.92458477  -285.87073712
          
   |1,0+;1,A,1>     0.00000000     0.00000000     0.00000001     0.00000000    -0.00000000     0.00000000    -0.00000139     0.00000000
   |1,0+;1,A,2>    -0.00000000    -0.00000000     0.99999961     0.00000000     0.00000000    -0.00000001     0.00055311    -0.00000000
   |1,0+;1,A,3>     0.00025334     0.00001344    -0.00000000     0.99999996     0.00001829    -0.00001714    -0.00000000     0.00000000
   |1,0+;1,A,4>    -0.00001422    -0.00000284    -0.00000000     0.00000001     0.00002031     0.00000855     0.00000000    -1.00000000
   |3,0+;3,A,1>    -0.00000044    -0.00000014     0.00059508     0.00000001    -0.00000002    -0.00000000     0.00000022    -0.00000000
   |3,1+;3,A,1>    -0.00069475    -0.00023185    -0.00000037     0.00001606    -0.00003330    -0.00000209    -0.00000000    -0.00000126
   |3,1-;3,A,1>    -0.00023179     0.00069476    -0.00000001     0.00009344     0.00000210    -0.00003331    -0.00000000     0.00002079
   |3,0+;3,A,2>     0.00002048     0.00038819     0.00000005     0.00000125    -0.00000468    -0.00012235     0.00000007    -0.00008657
   |3,1+;3,A,2>    -0.00000001    -0.00000024     0.00009104    -0.00000000     0.00000000     0.00000007     0.00012174     0.00000005
   |3,1-;3,A,2>    -0.00000000    -0.00000001    -0.00023393    -0.00000000     0.00000000     0.00000000    -0.00001309     0.00000000
   |3,0+;3,A,3>     0.00018464    -0.00059814     0.00021935    -0.00000004     0.00000029     0.00000003     0.00000004    -0.00000000
   |3,1+;3,A,3>     0.31649508    -0.94859347    -0.00000014    -0.00006737     0.00047083     0.00003249     0.00000000    -0.00000181
   |3,1-;3,A,3>    -0.94859370    -0.31649511    -0.00000000     0.00024457    -0.00003247     0.00047083     0.00000001     0.00001438
   |3,0+;3,A,4>    -0.00000028    -0.00000009     0.00055313    -0.00000001     0.00005675    -0.00060324    -0.99999966    -0.00000000
   |3,1+;3,A,4>    -0.00044767    -0.00014949    -0.00000035    -0.00001825     0.06873708    -0.99763451     0.00060572    -0.00000711
   |3,1-;3,A,4>    -0.00014942     0.00044767    -0.00000001    -0.00001704     0.99763470     0.06873710     0.00001516     0.00002085
rescaling new expansion vector ... old norm=   4411.9837693343

Sorted Energies:
1  -286.09971583 
2  -285.95268050 
3  -285.95268050 
4  -285.95268049 
5  -285.94150757 
6  -285.94150757 
7  -285.94150757 
8  -285.93653740 
9  -285.93653740 
10  -285.93653740 
11  -285.93406634 
12  -285.92570710 
13  -285.92458477 
14  -285.92458477 
15  -285.92458477 
16  -285.87073712 
Not computing transition moment with identical bra and ket.
 Calculating transition moment for (1,1) => (1,2)
 starting transci.x -m 200000 at Wed Jun  1 05:31:54 EDT 2022

 -------------------- transci.x ------------------------

                          State No. 1            State No. 2

   Space symmetry:           a                      a   
   No. of CSFs:          ********               ********
   State energies:      -286.09971583          -285.93406634  a.u.

   Transition energy:     0.16564949  a.u.
   Transition energy:     4.51        eV

       Transition moment components:

                 x            y            z

electron         -0.003178    -0.002028    -0.000001  e*bohr
frozen core       0.000000     0.000000     0.000000  e*bohr
total (elec)     -0.003178    -0.002028    -0.000001  e*bohr


   Tr.dipole length:     0.003769    e*bohr
   Oscillator strength :  0.000002
   Einstein A coef.:     0.1383E+04  1/sec
   Einstein B coef.:     0.5766E+04  sec/g

                 x            y            z

<L> electron     0.000014    -0.000196     0.312092  e*bohr


   <L> value length:     0.312092    e*bohr
 --------------------------------------------------- 
  Calculating transition moment for (1,1) => (1,3)
 starting transci.x -m 200000 at Wed Jun  1 05:34:07 EDT 2022

 -------------------- transci.x ------------------------

                          State No. 1            State No. 2

   Space symmetry:           a                      a   
   No. of CSFs:          ********               ********
   State energies:      -286.09971583          -285.92570710  a.u.

   Transition energy:     0.17400873  a.u.
   Transition energy:     4.74        eV

       Transition moment components:

                 x            y            z

electron          0.000007     0.000320    -0.511946  e*bohr
frozen core       0.000000     0.000000     0.000000  e*bohr
total (elec)      0.000007     0.000320    -0.511946  e*bohr


   Tr.dipole length:     0.511946    e*bohr
   Oscillator strength :  0.030404
   Einstein A coef.:     0.2958E+08  1/sec
   Einstein B coef.:     0.1064E+09  sec/g

                 x            y            z

<L> electron     0.023861     0.630896     0.000395  e*bohr


   <L> value length:     0.631347    e*bohr
 --------------------------------------------------- 
  Calculating transition moment for (1,1) => (1,4)
 starting transci.x -m 200000 at Wed Jun  1 05:36:18 EDT 2022

 -------------------- transci.x ------------------------

                          State No. 1            State No. 2

   Space symmetry:           a                      a   
   No. of CSFs:          ********               ********
   State energies:      -286.09971583          -285.87073712  a.u.

   Transition energy:     0.22897871  a.u.
   Transition energy:     6.23        eV

       Transition moment components:

                 x            y            z

electron         -0.000000    -0.000007     0.011111  e*bohr
frozen core       0.000000     0.000000     0.000000  e*bohr
total (elec)     -0.000000    -0.000007     0.011111  e*bohr


   Tr.dipole length:     0.011111    e*bohr
   Oscillator strength :  0.000019
   Einstein A coef.:     0.3175E+05  1/sec
   Einstein B coef.:     0.5010E+05  sec/g

                 x            y            z

<L> electron     0.458311    -0.023809    -0.000008  e*bohr


   <L> value length:     0.458929    e*bohr
 --------------------------------------------------- 
 Not computing transition moment with identical bra and ket.
 Calculating transition moment for (1,2) => (1,3)
 starting transci.x -m 200000 at Wed Jun  1 05:38:29 EDT 2022

 -------------------- transci.x ------------------------

                          State No. 1            State No. 2

   Space symmetry:           a                      a   
   No. of CSFs:          ********               ********
   State energies:      -285.93406634          -285.92570710  a.u.

   Transition energy:     0.00835925  a.u.
   Transition energy:     0.23        eV

       Transition moment components:

                 x            y            z

electron         -0.000001    -0.000030     0.048628  e*bohr
frozen core       0.000000     0.000000     0.000000  e*bohr
total (elec)     -0.000001    -0.000030     0.048628  e*bohr


   Tr.dipole length:     0.048628    e*bohr
   Oscillator strength :  0.000013
   Einstein A coef.:     0.2958E+02  1/sec
   Einstein B coef.:     0.9596E+06  sec/g

                 x            y            z

<L> electron    -0.133634     0.010471     0.000005  e*bohr


   <L> value length:     0.134044    e*bohr
 --------------------------------------------------- 
  Calculating transition moment for (1,2) => (1,4)
 starting transci.x -m 200000 at Wed Jun  1 05:40:36 EDT 2022

 -------------------- transci.x ------------------------

                          State No. 1            State No. 2

   Space symmetry:           a                      a   
   No. of CSFs:          ********               ********
   State energies:      -285.93406634          -285.87073712  a.u.

   Transition energy:     0.06332922  a.u.
   Transition energy:     1.72        eV

       Transition moment components:

                 x            y            z

electron         -0.000003    -0.000114     0.182856  e*bohr
frozen core       0.000000     0.000000     0.000000  e*bohr
total (elec)     -0.000003    -0.000114     0.182856  e*bohr


   Tr.dipole length:     0.182856    e*bohr
   Oscillator strength :  0.001412
   Einstein A coef.:     0.1819E+06  1/sec
   Einstein B coef.:     0.1357E+08  sec/g

                 x            y            z

<L> electron     0.000133    -0.598153    -0.000374  e*bohr


   <L> value length:     0.598153    e*bohr
 --------------------------------------------------- 
 Not computing transition moment with identical bra and ket.
 Calculating transition moment for (1,3) => (1,4)
 starting transci.x -m 200000 at Wed Jun  1 05:42:45 EDT 2022

 -------------------- transci.x ------------------------

                          State No. 1            State No. 2

   Space symmetry:           a                      a   
   No. of CSFs:          ********               ********
   State energies:      -285.92570710          -285.87073712  a.u.

   Transition energy:     0.05496997  a.u.
   Transition energy:     1.50        eV

       Transition moment components:

                 x            y            z

electron         -0.020475     0.002620     0.000001  e*bohr
frozen core       0.000000     0.000000     0.000000  e*bohr
total (elec)     -0.020475     0.002620     0.000001  e*bohr


   Tr.dipole length:     0.020642    e*bohr
   Oscillator strength :  0.000016
   Einstein A coef.:     0.1516E+04  1/sec
   Einstein B coef.:     0.1729E+06  sec/g

                 x            y            z

<L> electron     0.000006    -0.000089     0.139327  e*bohr


   <L> value length:     0.139327    e*bohr
 --------------------------------------------------- 
 Not computing transition moment with identical bra and ket.
Not computing transition moment with identical bra and ket.
 Calculating transition moment for (2,1) => (2,2)
 starting transci.x -m 200000 at Wed Jun  1 05:44:53 EDT 2022

 -------------------- transci.x ------------------------

                          State No. 1            State No. 2

   Space symmetry:           a                      a   
   No. of CSFs:          ********               ********
   State energies:      -285.95268049          -285.94150757  a.u.

   Transition energy:     0.01117292  a.u.
   Transition energy:     0.30        eV

       Transition moment components:

                 x            y            z

electron         -0.000004    -0.000161     0.257767  e*bohr
frozen core       0.000000     0.000000     0.000000  e*bohr
total (elec)     -0.000004    -0.000161     0.257767  e*bohr


   Tr.dipole length:     0.257767    e*bohr
   Oscillator strength :  0.000495
   Einstein A coef.:     0.1985E+04  1/sec
   Einstein B coef.:     0.2696E+08  sec/g

                 x            y            z

<L> electron     0.015262     1.122034     0.000702  e*bohr


   <L> value length:     1.122138    e*bohr
 --------------------------------------------------- 
  Calculating transition moment for (2,1) => (2,3)
 starting transci.x -m 200000 at Wed Jun  1 05:48:54 EDT 2022

 -------------------- transci.x ------------------------

                          State No. 1            State No. 2

   Space symmetry:           a                      a   
   No. of CSFs:          ********               ********
   State energies:      -285.95268049          -285.93653741  a.u.

   Transition energy:     0.01614308  a.u.
   Transition energy:     0.44        eV

       Transition moment components:

                 x            y            z

electron          0.293473     0.042048     0.000031  e*bohr
frozen core       0.000000     0.000000     0.000000  e*bohr
total (elec)      0.293473     0.042048     0.000031  e*bohr


   Tr.dipole length:     0.296470    e*bohr
   Oscillator strength :  0.000946
   Einstein A coef.:     0.7920E+04  1/sec
   Einstein B coef.:     0.3567E+08  sec/g

                 x            y            z

<L> electron    -0.000014     0.000105    -0.160059  e*bohr


   <L> value length:     0.160059    e*bohr
 --------------------------------------------------- 
  Calculating transition moment for (2,1) => (2,4)
 starting transci.x -m 200000 at Wed Jun  1 05:52:54 EDT 2022

 -------------------- transci.x ------------------------

                          State No. 1            State No. 2

   Space symmetry:           a                      a   
   No. of CSFs:          ********               ********
   State energies:      -285.95268049          -285.92458477  a.u.

   Transition energy:     0.02809571  a.u.
   Transition energy:     0.76        eV

       Transition moment components:

                 x            y            z

electron         -0.175474     0.010631     0.000004  e*bohr
frozen core       0.000000     0.000000     0.000000  e*bohr
total (elec)     -0.175474     0.010631     0.000004  e*bohr


   Tr.dipole length:     0.175795    e*bohr
   Oscillator strength :  0.000579
   Einstein A coef.:     0.1468E+05  1/sec
   Einstein B coef.:     0.1254E+08  sec/g

                 x            y            z

<L> electron     0.000001    -0.000010     0.012502  e*bohr


   <L> value length:     0.012502    e*bohr
 --------------------------------------------------- 
 Not computing transition moment with identical bra and ket.
 Calculating transition moment for (2,2) => (2,3)
 starting transci.x -m 200000 at Wed Jun  1 05:56:52 EDT 2022

 -------------------- transci.x ------------------------

                          State No. 1            State No. 2

   Space symmetry:           a                      a   
   No. of CSFs:          ********               ********
   State energies:      -285.94150757          -285.93653741  a.u.

   Transition energy:     0.00497016  a.u.
   Transition energy:     0.14        eV

       Transition moment components:

                 x            y            z

electron         -0.000001    -0.000048     0.077361  e*bohr
frozen core       0.000000     0.000000     0.000000  e*bohr
total (elec)     -0.000001    -0.000048     0.077361  e*bohr


   Tr.dipole length:     0.077361    e*bohr
   Oscillator strength :  0.000020
   Einstein A coef.:     0.1574E+02  1/sec
   Einstein B coef.:     0.2429E+07  sec/g

                 x            y            z

<L> electron     0.100778    -0.078827    -0.000048  e*bohr


   <L> value length:     0.127945    e*bohr
 --------------------------------------------------- 
  Calculating transition moment for (2,2) => (2,4)
 starting transci.x -m 200000 at Wed Jun  1 06:00:57 EDT 2022

 -------------------- transci.x ------------------------

                          State No. 1            State No. 2

   Space symmetry:           a                      a   
   No. of CSFs:          ********               ********
   State energies:      -285.94150757          -285.92458477  a.u.

   Transition energy:     0.01692280  a.u.
   Transition energy:     0.46        eV

       Transition moment components:

                 x            y            z

electron         -0.000001    -0.000052     0.083210  e*bohr
frozen core       0.000000     0.000000     0.000000  e*bohr
total (elec)     -0.000001    -0.000052     0.083210  e*bohr


   Tr.dipole length:     0.083210    e*bohr
   Oscillator strength :  0.000078
   Einstein A coef.:     0.7187E+03  1/sec
   Einstein B coef.:     0.2810E+07  sec/g

                 x            y            z

<L> electron     0.002290     0.385343     0.000241  e*bohr


   <L> value length:     0.385350    e*bohr
 --------------------------------------------------- 
 Not computing transition moment with identical bra and ket.
 Calculating transition moment for (2,3) => (2,4)
 starting transci.x -m 200000 at Wed Jun  1 06:04:52 EDT 2022

 -------------------- transci.x ------------------------

                          State No. 1            State No. 2

   Space symmetry:           a                      a   
   No. of CSFs:          ********               ********
   State energies:      -285.93653741          -285.92458477  a.u.

   Transition energy:     0.01195263  a.u.
   Transition energy:     0.33        eV

       Transition moment components:

                 x            y            z

electron          0.248569    -0.056647    -0.000032  e*bohr
frozen core       0.000000     0.000000     0.000000  e*bohr
total (elec)      0.248569    -0.056647    -0.000032  e*bohr


   Tr.dipole length:     0.254942    e*bohr
   Oscillator strength :  0.000518
   Einstein A coef.:     0.2377E+04  1/sec
   Einstein B coef.:     0.2638E+08  sec/g

                 x            y            z

<L> electron    -0.000010     0.000049    -0.072920  e*bohr


   <L> value length:     0.072920    e*bohr
 --------------------------------------------------- 
 Not computing transition moment with identical bra and ket.
 --- ci properties for state 1 of  DRT 1 ----
starting exptvl.x -m 200000  at Wed Jun  1 06:08:49 EDT 2022

 -------------------- exptvl.x ------------------------
  === dipole moment === 
                     X               Y               Z   
   orign x       0.00000000      0.00000000      0.00000000
   orign y       0.00000000      0.00000000      0.00000000
   orign z       0.00000000      0.00000000      0.00000000
   nuclear      -1.01291011      1.92975899      0.02959320
   electronic    0.37050926     -2.20773775     -0.02977638
   total        -0.64240085     -0.27797876     -0.00018318
   total Dipole moment =   1.77913547    Debye
 !timer: exptvl required                 cpu_time=     0.183 walltime=     0.645
 --------------------------------------------------- 
  --- ci properties for state 2 of  DRT 1 ----
starting exptvl.x -m 200000  at Wed Jun  1 06:08:50 EDT 2022

 -------------------- exptvl.x ------------------------
  === dipole moment === 
                     X               Y               Z   
   orign x       0.00000000      0.00000000      0.00000000
   orign y       0.00000000      0.00000000      0.00000000
   orign z       0.00000000      0.00000000      0.00000000
   nuclear      -1.01291011      1.92975899      0.02959320
   electronic    4.29036451     -2.27617789     -0.02976291
   total         3.27745440     -0.34641890     -0.00016971
   total Dipole moment =   8.37687108    Debye
 --------------------------------------------------- 
  --- ci properties for state 3 of  DRT 1 ----
starting exptvl.x -m 200000  at Wed Jun  1 06:08:50 EDT 2022

 -------------------- exptvl.x ------------------------
  === dipole moment === 
                     X               Y               Z   
   orign x       0.00000000      0.00000000      0.00000000
   orign y       0.00000000      0.00000000      0.00000000
   orign z       0.00000000      0.00000000      0.00000000
   nuclear      -1.01291011      1.92975899      0.02959320
   electronic   -0.00175274     -2.17741311     -0.02976275
   total        -1.01466285     -0.24765412     -0.00016955
   total Dipole moment =   2.65472668    Debye
 --------------------------------------------------- 
  --- ci properties for state 4 of  DRT 1 ----
starting exptvl.x -m 200000  at Wed Jun  1 06:08:50 EDT 2022

 -------------------- exptvl.x ------------------------
  === dipole moment === 
                     X               Y               Z   
   orign x       0.00000000      0.00000000      0.00000000
   orign y       0.00000000      0.00000000      0.00000000
   orign z       0.00000000      0.00000000      0.00000000
   nuclear      -1.01291011      1.92975899      0.02959320
   electronic    5.26329287     -2.37913905     -0.02981335
   total         4.25038276     -0.44938006     -0.00022015
   total Dipole moment =  10.86361961    Debye
 --------------------------------------------------- 
  --- ci properties for state 1 of  DRT 2 ----
starting exptvl.x -m 200000  at Wed Jun  1 06:08:51 EDT 2022

 -------------------- exptvl.x ------------------------
  === dipole moment === 
                     X               Y               Z   
   orign x       0.00000000      0.00000000      0.00000000
   orign y       0.00000000      0.00000000      0.00000000
   orign z       0.00000000      0.00000000      0.00000000
   nuclear      -1.01291011      1.92975899      0.02959320
   electronic    0.34871572     -2.18410632     -0.02976193
   total        -0.66419439     -0.25434733     -0.00016873
   total Dipole moment =   1.80776576    Debye
 --------------------------------------------------- 
  --- ci properties for state 2 of  DRT 2 ----
starting exptvl.x -m 200000  at Wed Jun  1 06:08:51 EDT 2022

 -------------------- exptvl.x ------------------------
  === dipole moment === 
                     X               Y               Z   
   orign x       0.00000000      0.00000000      0.00000000
   orign y       0.00000000      0.00000000      0.00000000
   orign z       0.00000000      0.00000000      0.00000000
   nuclear      -1.01291011      1.92975899      0.02959320
   electronic   -0.28207322     -2.17312238     -0.02976408
   total        -1.29498333     -0.24336339     -0.00017088
   total Dipole moment =   3.34914143    Debye
 --------------------------------------------------- 
  --- ci properties for state 3 of  DRT 2 ----
starting exptvl.x -m 200000  at Wed Jun  1 06:08:51 EDT 2022

 -------------------- exptvl.x ------------------------
  === dipole moment === 
                     X               Y               Z   
   orign x       0.00000000      0.00000000      0.00000000
   orign y       0.00000000      0.00000000      0.00000000
   orign z       0.00000000      0.00000000      0.00000000
   nuclear      -1.01291011      1.92975899      0.02959320
   electronic    4.19730895     -2.25668458     -0.02975204
   total         3.18439884     -0.32692559     -0.00015884
   total Dipole moment =   8.13648607    Debye
 --------------------------------------------------- 
  --- ci properties for state 4 of  DRT 2 ----
starting exptvl.x -m 200000  at Wed Jun  1 06:08:51 EDT 2022

 -------------------- exptvl.x ------------------------
  === dipole moment === 
                     X               Y               Z   
   orign x       0.00000000      0.00000000      0.00000000
   orign y       0.00000000      0.00000000      0.00000000
   orign z       0.00000000      0.00000000      0.00000000
   nuclear      -1.01291011      1.92975899      0.02959320
   electronic    0.12259189     -2.20039499     -0.02977534
   total        -0.89031822     -0.27063600     -0.00018214
   total Dipole moment =   2.36520693    Debye
 --------------------------------------------------- 
 starting mo_convert.x at Wed Jun  1 06:08:52 EDT 2022

 -------------------- mo_convert.x ------------------------
 --------------------------------------------------- 
 starting pymolcas molcas.input.molden > molcas.output.molden at Wed Jun  1 06:08:52 EDT 2022

Generating link ln -s ./molcas.OrdInt ORDINT 
 -------------------- molden ------------------------
 --------------------------------------------------- 
 starting mo_convert.x at Wed Jun  1 06:09:19 EDT 2022

 -------------------- mo_convert.x ------------------------
 --------------------------------------------------- 
 starting pymolcas molcas.input.molden > molcas.output.molden at Wed Jun  1 06:09:19 EDT 2022

Generating link ln -s ./molcas.OrdInt ORDINT 
 -------------------- molden ------------------------
 --------------------------------------------------- 
 starting mo_convert.x at Wed Jun  1 06:09:44 EDT 2022

 -------------------- mo_convert.x ------------------------
 --------------------------------------------------- 
 starting pymolcas molcas.input.molden > molcas.output.molden at Wed Jun  1 06:09:44 EDT 2022

Generating link ln -s ./molcas.OrdInt ORDINT 
 -------------------- molden ------------------------
 --------------------------------------------------- 
 starting mo_convert.x at Wed Jun  1 06:10:05 EDT 2022

 -------------------- mo_convert.x ------------------------
 --------------------------------------------------- 
 starting pymolcas molcas.input.molden > molcas.output.molden at Wed Jun  1 06:10:05 EDT 2022

Generating link ln -s ./molcas.OrdInt ORDINT 
 -------------------- molden ------------------------
 --------------------------------------------------- 
 starting mo_convert.x at Wed Jun  1 06:10:26 EDT 2022

 -------------------- mo_convert.x ------------------------
 --------------------------------------------------- 
 starting pymolcas molcas.input.molden > molcas.output.molden at Wed Jun  1 06:10:27 EDT 2022

Generating link ln -s ./molcas.OrdInt ORDINT 
 -------------------- molden ------------------------
 --------------------------------------------------- 
 starting mo_convert.x at Wed Jun  1 06:10:47 EDT 2022

 -------------------- mo_convert.x ------------------------
 --------------------------------------------------- 
 starting pymolcas molcas.input.molden > molcas.output.molden at Wed Jun  1 06:10:47 EDT 2022

Generating link ln -s ./molcas.OrdInt ORDINT 
 -------------------- molden ------------------------
 --------------------------------------------------- 
 starting mo_convert.x at Wed Jun  1 06:11:09 EDT 2022

 -------------------- mo_convert.x ------------------------
 --------------------------------------------------- 
 starting pymolcas molcas.input.molden > molcas.output.molden at Wed Jun  1 06:11:09 EDT 2022

Generating link ln -s ./molcas.OrdInt ORDINT 
 -------------------- molden ------------------------
 --------------------------------------------------- 
 starting mo_convert.x at Wed Jun  1 06:11:33 EDT 2022

 -------------------- mo_convert.x ------------------------
 --------------------------------------------------- 
 starting pymolcas molcas.input.molden > molcas.output.molden at Wed Jun  1 06:11:34 EDT 2022

Generating link ln -s ./molcas.OrdInt ORDINT 
 -------------------- molden ------------------------
 --------------------------------------------------- 
 starting mo_convert.x at Wed Jun  1 06:11:54 EDT 2022

 -------------------- mo_convert.x ------------------------
 --------------------------------------------------- 
 starting pymolcas molcas.input.molden > molcas.output.molden at Wed Jun  1 06:11:55 EDT 2022

Generating link ln -s ./molcas.OrdInt ORDINT 
 -------------------- molden ------------------------
 --------------------------------------------------- 
 starting mo_convert.x at Wed Jun  1 06:12:15 EDT 2022

 -------------------- mo_convert.x ------------------------
 --------------------------------------------------- 
 starting pymolcas molcas.input.molden > molcas.output.molden at Wed Jun  1 06:12:16 EDT 2022

Generating link ln -s ./molcas.OrdInt ORDINT 
 -------------------- molden ------------------------
 --------------------------------------------------- 
 starting mo_convert.x at Wed Jun  1 06:12:37 EDT 2022

 -------------------- mo_convert.x ------------------------
 --------------------------------------------------- 
 starting pymolcas molcas.input.molden > molcas.output.molden at Wed Jun  1 06:12:37 EDT 2022

Generating link ln -s ./molcas.OrdInt ORDINT 
 -------------------- molden ------------------------
 --------------------------------------------------- 
 starting mo_convert.x at Wed Jun  1 06:12:58 EDT 2022

 -------------------- mo_convert.x ------------------------
 --------------------------------------------------- 
 starting pymolcas molcas.input.molden > molcas.output.molden at Wed Jun  1 06:12:58 EDT 2022

Generating link ln -s ./molcas.OrdInt ORDINT 
 -------------------- molden ------------------------
 --------------------------------------------------- 
 starting mo_convert.x at Wed Jun  1 06:13:19 EDT 2022

 -------------------- mo_convert.x ------------------------
 --------------------------------------------------- 
 starting pymolcas molcas.input.molden > molcas.output.molden at Wed Jun  1 06:13:19 EDT 2022

Generating link ln -s ./molcas.OrdInt ORDINT 
 -------------------- molden ------------------------
 --------------------------------------------------- 
 starting mo_convert.x at Wed Jun  1 06:13:40 EDT 2022

 -------------------- mo_convert.x ------------------------
 --------------------------------------------------- 
 starting pymolcas molcas.input.molden > molcas.output.molden at Wed Jun  1 06:13:41 EDT 2022

Generating link ln -s ./molcas.OrdInt ORDINT 
 -------------------- molden ------------------------
 --------------------------------------------------- 
 

 +++++++++++ STARTING GRADIENTS AND NAD. COUPLINGS CALCULATION +++++++++++ 

 Using new transition density code ... 
INFO: this is a frozen core gradient calculation
starting cidrt.x  -m 200000 < cidrtin.cigrd > cidrtls.cigrd at Wed Jun  1 06:14:01 EDT 2022

 -------------------- cidrt.x ------------------------
 total number of orbitals            :   246
 number of frozen core orbitals      :    18
 number of frozen virtual orbitals   :     0
 number of internal orbitals         :    14
 number of external orbitals         :   214
 spatial symmetry:   a  
 
 total number of configurations  282461366
 number of reference configurations  1666
 --------------------------------------------------- 
 starting tran.x -m 200000  at Wed Jun  1 06:14:08 EDT 2022

 -------------------- tran.x ------------------------
 --------------------------------------------------- 
 ---- Computing 8 gradient(s)  ----

 --- Computing gradient for DRT:1, State; 1

starting cigrd.x -m 200000 at Wed Jun  1 06:22:14 EDT 2022

 -------------------- cigrd.x ------------------------
 Total energy (ciudg) :  -286.099715830617 
  Effective energy     :  -286.099715844615 
  Delta E              :     0.000000013998 
  --------------------------------------------------- 
 starting tran.x -m 200000  at Wed Jun  1 06:29:53 EDT 2022

 -------------------- tran.x ------------------------
 --------------------------------------------------- 
 starting pymolcas molcas.input.alaska > molcas.output.alaska  at Wed Jun  1 06:35:06 EDT 2022

Generating link ln -s ./molcas.OrdInt ORDINT 
 -------------------- alaska ------------------------
 --------------------------------------------------- 
 cartesian gradient by alaska (MOLCAS)

 === Gradient of DRT 1, state 1 === 
   0.284631D-01  -0.877563D-02  -0.508928D-05
  -0.267427D-01   0.305543D-02   0.152420D-05
  -0.210021D-01   0.115315D-02  -0.281742D-01
  -0.210029D-01   0.111788D-02   0.281750D-01
   0.190923D-01  -0.658250D-03  -0.249353D-01
   0.190915D-01  -0.689465D-03   0.249350D-01
   0.994331D-02  -0.439545D-03  -0.145537D-06
  -0.362669D-02   0.217606D-02  -0.464097D-02
  -0.362683D-02   0.217025D-02   0.464359D-02
   0.388677D-03   0.383300D-03   0.128317D-02
   0.388713D-03   0.384904D-03  -0.128267D-02
  -0.538718D-03  -0.251481D-04   0.122790D-02
  -0.538690D-03  -0.236117D-04  -0.122794D-02
  -0.289044D-03   0.170676D-03   0.100902D-06
===================================
 --- Computing gradient for DRT:1, State; 2

starting cigrd.x -m 200000 at Wed Jun  1 06:36:26 EDT 2022

 -------------------- cigrd.x ------------------------
 Total energy (ciudg) :  -285.934066343406 
  Effective energy     :  -285.934066357746 
  Delta E              :     0.000000014340 
  --------------------------------------------------- 
 starting tran.x -m 200000  at Wed Jun  1 06:44:16 EDT 2022

 -------------------- tran.x ------------------------
 --------------------------------------------------- 
 starting pymolcas molcas.input.alaska > molcas.output.alaska  at Wed Jun  1 06:49:36 EDT 2022

Generating link ln -s ./molcas.OrdInt ORDINT 
 -------------------- alaska ------------------------
 --------------------------------------------------- 
 cartesian gradient by alaska (MOLCAS)

 === Gradient of DRT 1, state 2 === 
  -0.460739D-01   0.215431D-01   0.128170D-04
   0.332829D-01  -0.939674D-02  -0.541021D-05
  -0.444000D-01   0.406778D-03  -0.130122D-02
  -0.444001D-01   0.405146D-03   0.130046D-02
   0.382519D-01  -0.543369D-03  -0.117682D-01
   0.382516D-01  -0.558074D-03   0.117686D-01
   0.906398D-02  -0.333212D-03  -0.741582D-07
   0.739886D-02  -0.592056D-02   0.108946D-01
   0.739916D-02  -0.590692D-02  -0.109018D-01
  -0.486757D-03   0.153216D-03  -0.153978D-02
  -0.486813D-03   0.151291D-03   0.153996D-02
   0.922723D-03  -0.704728D-06   0.207623D-03
   0.922739D-03  -0.448889D-06  -0.207598D-03
   0.353794D-03   0.537337D-06   0.519086D-08
===================================
 --- Computing gradient for DRT:1, State; 3

starting cigrd.x -m 200000 at Wed Jun  1 06:50:56 EDT 2022

 -------------------- cigrd.x ------------------------
 Total energy (ciudg) :  -285.925707096386 
  Effective energy     :  -285.925707111755 
  Delta E              :     0.000000015369 
  --------------------------------------------------- 
 starting tran.x -m 200000  at Wed Jun  1 06:59:17 EDT 2022

 -------------------- tran.x ------------------------
 --------------------------------------------------- 
 starting pymolcas molcas.input.alaska > molcas.output.alaska  at Wed Jun  1 07:04:46 EDT 2022

Generating link ln -s ./molcas.OrdInt ORDINT 
 -------------------- alaska ------------------------
 --------------------------------------------------- 
 cartesian gradient by alaska (MOLCAS)

 === Gradient of DRT 1, state 3 === 
   0.993261D-02  -0.827326D-03  -0.379615D-06
  -0.585848D-02   0.139487D-02   0.785610D-06
   0.969451D-02  -0.178103D-03  -0.211620D-03
   0.969450D-02  -0.178368D-03   0.211660D-03
  -0.820105D-02   0.147370D-03   0.174197D-02
  -0.820102D-02   0.149547D-03  -0.174202D-02
  -0.502557D-03   0.274441D-04   0.322344D-07
  -0.318094D-02  -0.281661D-03  -0.215200D-02
  -0.318099D-02  -0.284355D-03   0.215156D-02
   0.147130D-03   0.171583D-04   0.338689D-03
   0.147143D-03   0.175809D-04  -0.338668D-03
  -0.181871D-03  -0.706639D-05  -0.438292D-04
  -0.181878D-03  -0.712210D-05   0.438110D-04
  -0.127115D-03   0.100329D-04   0.551858D-08
===================================
 --- Computing gradient for DRT:1, State; 4

starting cigrd.x -m 200000 at Wed Jun  1 07:06:04 EDT 2022

 -------------------- cigrd.x ------------------------
 Total energy (ciudg) :  -285.870737122837 
  Effective energy     :  -285.870737135593 
  Delta E              :     0.000000012756 
  --------------------------------------------------- 
 starting tran.x -m 200000  at Wed Jun  1 07:14:10 EDT 2022

 -------------------- tran.x ------------------------
 --------------------------------------------------- 
 starting pymolcas molcas.input.alaska > molcas.output.alaska  at Wed Jun  1 07:19:38 EDT 2022

Generating link ln -s ./molcas.OrdInt ORDINT 
 -------------------- alaska ------------------------
 --------------------------------------------------- 
 cartesian gradient by alaska (MOLCAS)

 === Gradient of DRT 1, state 4 === 
  -0.169160D-01   0.413942D-02   0.235588D-05
   0.257973D-01  -0.202151D-02  -0.881851D-06
   0.147243D-01  -0.238519D-03  -0.259599D-01
   0.147236D-01  -0.271019D-03   0.259600D-01
  -0.227679D-01   0.240594D-03  -0.352783D-01
  -0.227689D-01   0.196455D-03   0.352779D-01
   0.287267D-02  -0.293365D-03  -0.145850D-06
   0.172434D-02  -0.120992D-02   0.105107D-02
   0.172437D-02  -0.120860D-02  -0.105254D-02
  -0.570083D-03   0.258807D-03  -0.169848D-02
  -0.570131D-03   0.256681D-03   0.169877D-02
   0.173613D-03   0.225459D-04   0.134045D-03
   0.173614D-03   0.227144D-04  -0.134021D-03
   0.167933D-02   0.105715D-03   0.901781D-07
===================================
 --- Computing gradient for DRT:2, State; 1

starting cigrd.x -m 200000 at Wed Jun  1 07:20:56 EDT 2022

 -------------------- cigrd.x ------------------------
 Total energy (ciudg) :  -285.952680487615 
  Effective energy     :  -285.952680502402 
  Delta E              :     0.000000014787 
  --------------------------------------------------- 
 starting tran.x -m 200000  at Wed Jun  1 07:28:45 EDT 2022

 -------------------- tran.x ------------------------
 --------------------------------------------------- 
 starting pymolcas molcas.input.alaska > molcas.output.alaska  at Wed Jun  1 07:33:59 EDT 2022

Generating link ln -s ./molcas.OrdInt ORDINT 
 -------------------- alaska ------------------------
 --------------------------------------------------- 
 cartesian gradient by alaska (MOLCAS)

 === Gradient of DRT 2, state 1 === 
   0.304628D-01  -0.120599D-01  -0.710972D-05
   0.133070D-02   0.489846D-02   0.308309D-05
  -0.323352D-01   0.268666D-03   0.363382D-02
  -0.323351D-01   0.273186D-03  -0.363439D-02
   0.299322D-01  -0.334957D-03   0.134617D-01
   0.299326D-01  -0.318110D-03  -0.134612D-01
  -0.218502D-01   0.416713D-03  -0.560295D-07
  -0.231834D-02   0.348382D-02  -0.380773D-02
  -0.231844D-02   0.347905D-02   0.381201D-02
  -0.630032D-03   0.594699D-04   0.144091D-02
  -0.629987D-03   0.612748D-04  -0.144085D-02
   0.138564D-03  -0.189942D-04   0.681609D-03
   0.138587D-03  -0.181425D-04  -0.681623D-03
   0.481846D-03  -0.190579D-03  -0.107812D-06
===================================
 --- Computing gradient for DRT:2, State; 2

starting cigrd.x -m 200000 at Wed Jun  1 07:35:19 EDT 2022

 -------------------- cigrd.x ------------------------
 Total energy (ciudg) :  -285.941507570415 
  Effective energy     :  -285.941507585798 
  Delta E              :     0.000000015383 
  --------------------------------------------------- 
 starting tran.x -m 200000  at Wed Jun  1 07:43:03 EDT 2022

 -------------------- tran.x ------------------------
 --------------------------------------------------- 
 starting pymolcas molcas.input.alaska > molcas.output.alaska  at Wed Jun  1 07:48:37 EDT 2022

Generating link ln -s ./molcas.OrdInt ORDINT 
 -------------------- alaska ------------------------
 --------------------------------------------------- 
 cartesian gradient by alaska (MOLCAS)

 === Gradient of DRT 2, state 2 === 
  -0.788025D-02   0.703684D-02   0.427857D-05
   0.415081D-02  -0.278441D-02  -0.166786D-05
   0.109346D-01   0.328040D-03  -0.887598D-03
   0.109346D-01   0.326927D-03   0.888286D-03
  -0.160347D-01   0.483940D-03  -0.294297D-02
  -0.160348D-01   0.480224D-03   0.294313D-02
   0.200991D-01  -0.679004D-03  -0.116904D-06
  -0.336081D-02  -0.256468D-02  -0.790602D-03
  -0.336083D-02  -0.256567D-02   0.787293D-03
   0.763304D-03  -0.144810D-04  -0.282080D-03
   0.763302D-03  -0.148346D-04   0.282089D-03
  -0.509620D-04  -0.419508D-04  -0.455975D-03
  -0.509832D-04  -0.425200D-04   0.455911D-03
  -0.872359D-03   0.515688D-04   0.218469D-07
===================================
 --- Computing gradient for DRT:2, State; 3

starting cigrd.x -m 200000 at Wed Jun  1 07:49:56 EDT 2022

 -------------------- cigrd.x ------------------------
 Total energy (ciudg) :  -285.936537406644 
  Effective energy     :  -285.936537421150 
  Delta E              :     0.000000014506 
  --------------------------------------------------- 
 starting tran.x -m 200000  at Wed Jun  1 07:58:09 EDT 2022

 -------------------- tran.x ------------------------
 --------------------------------------------------- 
 starting pymolcas molcas.input.alaska > molcas.output.alaska  at Wed Jun  1 08:03:30 EDT 2022

Generating link ln -s ./molcas.OrdInt ORDINT 
 -------------------- alaska ------------------------
 --------------------------------------------------- 
 cartesian gradient by alaska (MOLCAS)

 === Gradient of DRT 2, state 3 === 
  -0.450913D-01   0.206717D-01   0.122848D-04
   0.299058D-01  -0.825012D-02  -0.473249D-05
  -0.422329D-01   0.629329D-04  -0.237505D-02
  -0.422330D-01   0.599479D-04   0.237391D-02
   0.359846D-01  -0.808941D-03  -0.125222D-01
   0.359843D-01  -0.824604D-03   0.125222D-01
   0.980317D-02  -0.197137D-04   0.144314D-06
   0.838926D-02  -0.565661D-02   0.127433D-01
   0.838963D-02  -0.564066D-02  -0.127501D-01
  -0.474298D-03   0.137337D-03  -0.157431D-02
  -0.474349D-03   0.135368D-03   0.157447D-02
   0.865634D-03   0.477634D-04   0.229373D-03
   0.865638D-03   0.480481D-04  -0.229292D-03
   0.317792D-03   0.375804D-04   0.269637D-07
===================================
 --- Computing gradient for DRT:2, State; 4

starting cigrd.x -m 200000 at Wed Jun  1 08:04:51 EDT 2022

 -------------------- cigrd.x ------------------------
[...]
  -1.314741E-04  -5.688919E-03   9.091216E+00
   8.932382E-01   9.091950E-02  -4.192856E+00
  -8.931140E-01  -8.567182E-02  -4.192990E+00
   2.380888E+00  -1.044857E-01   3.950328E+00
  -2.381003E+00   9.954116E-02   3.950391E+00
   1.046304E-04   4.599507E-03  -7.348446E+00
  -5.114911E-02  -1.726276E-01  -5.175211E-02
   5.115029E-02   1.726928E-01  -5.153422E-02
   6.104227E-02   4.702628E-02   1.745888E-02
  -6.104209E-02  -4.704762E-02   1.739792E-02
   4.362185E-02  -1.544495E-03  -3.688987E-02
  -4.362086E-02   1.590657E-03  -3.688862E-02
   2.314865E-06   1.014559E-04  -1.619910E-01
===================================

 Norm of the nonadiabatic coupling vector: 
 |h(drt2.state1,drt2.state2)|= 14.7317699928938 

 Cross-check of the non-adiabatic coupling term:
  DeltaE= -0.0111729172000423

  <L>*dE form CIGRD   :    0.0000001117    -0.0000005475     0.0008147291
  <L>*dE form NADCOUPL:   -0.0001700208    -0.0125387519    -0.0000078921
 -------------------------------------------------------------------------
  Difference          :    0.0001701326     0.0125382045     0.0008226212

 NOTE: This test is meaningless at a point of conical intersection!


 -------- NAD. COUPLING for DRT:2 STATE:1 AND DRT:2 STATE:3 --------
opening file =ciudgls.drt2.sp
opening file =ciudgls.drt2.sp
extracted: energy1= -285.9526804874   energy2=-285.9365374065   deltae=-0.016143080900008
starting cigrd.x -m 200000 at Wed Jun  1 10:06:49 EDT 2022

 -------------------- cigrd.x ------------------------
 Total energy (ciudg) :     0.000000000547 
  Effective energy     :     0.000000008965 
  Delta E              :    -0.000000008418 
  --------------------------------------------------- 
 starting tran.x -m 200000  at Wed Jun  1 10:14:54 EDT 2022

 -------------------- tran.x ------------------------
 --------------------------------------------------- 
  adding keyword NONUC to alaska input
starting pymolcas molcas.input.alaska > molcas.output.alaska  at Wed Jun  1 10:19:50 EDT 2022

Generating link ln -s ./molcas.OrdInt ORDINT 
 -------------------- alaska ------------------------
 --------------------------------------------------- 
 cartesian gradient by alaska (MOLCAS)

 Calculating the Dx(r,s) term of D[CSF] nonadiabatic coupling term.
dxcalc: INPUT LINE SEPARATOR 
 
starting tran.x -m 200000  at Wed Jun  1 10:20:57 EDT 2022

 -------------------- tran.x ------------------------
 --------------------------------------------------- 
 starting tdmrunfile.x > tdmrunfilels at Wed Jun  1 10:20:57 EDT 2022

 -------------------- tdmrunfile.x ------------------------
 --------------------------------------------------- 
 starting pymolcas molcas.input.alaska > molcas.output.alaska  at Wed Jun  1 10:20:57 EDT 2022

Generating link ln -s ./molcas.OrdInt ORDINT 
 -------------------- alaska ------------------------
 --------------------------------------------------- 
 
 === Non-adiabatic coupling for DRT 2 STATE 1 and DRT 2 STATE 3 === 
  -8.258687E-01   2.049384E-01   1.166391E-04
   3.393824E-01  -1.303156E+00  -8.110849E-04
  -3.208990E-01   3.785295E-01   9.014291E-02
  -3.208965E-01   3.786419E-01  -8.967815E-02
   2.988271E-01   3.030867E-01  -6.464706E-02
   2.988252E-01   3.030065E-01   6.503558E-02
   7.621236E-02  -3.331922E-01  -2.074162E-04
   2.333057E-01   1.451612E-01   3.993585E-01
   2.333170E-01   1.456611E-01  -3.991701E-01
  -3.263203E-03  -5.282277E-02  -1.563179E-02
  -3.263668E-03  -5.284270E-02   1.556553E-02
   2.940694E-03  -2.567997E-02   2.816398E-03
   2.940967E-03  -2.567613E-02  -2.848461E-03
  -3.127258E-03  -3.653117E-02  -2.285398E-05
===================================

 Norm of the nonadiabatic coupling vector: 
 |h(drt2.state1,drt2.state3)|= 2.00312224775108 

 Cross-check of the non-adiabatic coupling term:
  DeltaE= -0.016143080900008

  <L>*dE form CIGRD   :    0.0000001614    -0.0000007910     0.0011771535
  <L>*dE form NADCOUPL:    0.0000002579    -0.0000016436     0.0025801447
 -------------------------------------------------------------------------
  Difference          :   -0.0000000964     0.0000008526    -0.0014029912

 NOTE: This test is meaningless at a point of conical intersection!


 -------- NAD. COUPLING for DRT:2 STATE:1 AND DRT:2 STATE:4 --------
opening file =ciudgls.drt2.sp
opening file =ciudgls.drt2.sp
extracted: energy1= -285.9526804874   energy2=-285.9245847736   deltae=-0.0280957138000417
starting cigrd.x -m 200000 at Wed Jun  1 10:21:59 EDT 2022

 -------------------- cigrd.x ------------------------
 Total energy (ciudg) :     0.000000000164 
  Effective energy     :     0.000000004537 
  Delta E              :    -0.000000004373 
  --------------------------------------------------- 
 starting tran.x -m 200000  at Wed Jun  1 10:30:25 EDT 2022

 -------------------- tran.x ------------------------
 --------------------------------------------------- 
  adding keyword NONUC to alaska input
starting pymolcas molcas.input.alaska > molcas.output.alaska  at Wed Jun  1 10:35:40 EDT 2022

Generating link ln -s ./molcas.OrdInt ORDINT 
 -------------------- alaska ------------------------
 --------------------------------------------------- 
 cartesian gradient by alaska (MOLCAS)

 Calculating the Dx(r,s) term of D[CSF] nonadiabatic coupling term.
dxcalc: INPUT LINE SEPARATOR 
 
starting tran.x -m 200000  at Wed Jun  1 10:36:47 EDT 2022

 -------------------- tran.x ------------------------
 --------------------------------------------------- 
 starting tdmrunfile.x > tdmrunfilels at Wed Jun  1 10:36:47 EDT 2022

 -------------------- tdmrunfile.x ------------------------
 --------------------------------------------------- 
 starting pymolcas molcas.input.alaska > molcas.output.alaska  at Wed Jun  1 10:36:47 EDT 2022

Generating link ln -s ./molcas.OrdInt ORDINT 
 -------------------- alaska ------------------------
 --------------------------------------------------- 
 
 === Non-adiabatic coupling for DRT 2 STATE 1 and DRT 2 STATE 4 === 
  -1.538132E-02  -1.936002E-02  -1.200981E-05
   7.344148E-01   9.801468E-02   7.159564E-05
  -2.599535E+00   1.011232E-03   8.327360E-01
  -2.599510E+00   2.053100E-03  -8.328094E-01
   2.652914E+00  -6.945454E-02   9.397508E-01
   2.652942E+00  -6.827812E-02  -9.397595E-01
  -9.246069E-01   5.485935E-02   2.100784E-05
   3.724693E-02   1.650345E-03   3.236005E-02
   3.724763E-02   1.690894E-03  -3.235691E-02
  -2.625364E-02   1.771427E-03   3.881130E-02
  -2.625268E-02   1.820000E-03  -3.881033E-02
   2.947840E-02  -1.002320E-03   2.789682E-02
   2.947918E-02  -9.672795E-04  -2.789718E-02
   1.402614E-02  -6.295613E-03  -3.986620E-06
===================================

 Norm of the nonadiabatic coupling vector: 
 |h(drt2.state1,drt2.state4)|= 5.67222865720275 

 Cross-check of the non-adiabatic coupling term:
  DeltaE= -0.0280957138000417

  <L>*dE form CIGRD   :    0.0000002810    -0.0000013767     0.0020487395
  <L>*dE form NADCOUPL:   -0.0000000258     0.0000001968    -0.0003537643
 -------------------------------------------------------------------------
  Difference          :    0.0000003067    -0.0000015735     0.0024025037

 NOTE: This test is meaningless at a point of conical intersection!


 -------- NAD. COUPLING for DRT:2 STATE:2 AND DRT:2 STATE:3 --------
opening file =ciudgls.drt2.sp
opening file =ciudgls.drt2.sp
extracted: energy1= -285.9415075702   energy2=-285.9365374065   deltae=-0.00497016369996572
starting cigrd.x -m 200000 at Wed Jun  1 10:37:56 EDT 2022

 -------------------- cigrd.x ------------------------
 Total energy (ciudg) :    -0.000000000083 
  Effective energy     :    -0.000000001661 
  Delta E              :     0.000000001578 
  --------------------------------------------------- 
 starting tran.x -m 200000  at Wed Jun  1 10:45:55 EDT 2022

 -------------------- tran.x ------------------------
 --------------------------------------------------- 
  adding keyword NONUC to alaska input
starting pymolcas molcas.input.alaska > molcas.output.alaska  at Wed Jun  1 10:50:54 EDT 2022

Generating link ln -s ./molcas.OrdInt ORDINT 
 -------------------- alaska ------------------------
 --------------------------------------------------- 
 cartesian gradient by alaska (MOLCAS)

 Calculating the Dx(r,s) term of D[CSF] nonadiabatic coupling term.
dxcalc: INPUT LINE SEPARATOR 
 
starting tran.x -m 200000  at Wed Jun  1 10:51:58 EDT 2022

 -------------------- tran.x ------------------------
 --------------------------------------------------- 
 starting tdmrunfile.x > tdmrunfilels at Wed Jun  1 10:51:58 EDT 2022

 -------------------- tdmrunfile.x ------------------------
 --------------------------------------------------- 
 starting pymolcas molcas.input.alaska > molcas.output.alaska  at Wed Jun  1 10:51:58 EDT 2022

Generating link ln -s ./molcas.OrdInt ORDINT 
 -------------------- alaska ------------------------
 --------------------------------------------------- 
 
 === Non-adiabatic coupling for DRT 2 STATE 2 and DRT 2 STATE 3 === 
   1.007913E-05   4.644503E-04  -7.450618E-01
  -2.528363E-05  -1.163522E-03   1.858006E+00
   4.794846E-01   1.230570E+00  -7.138278E-01
  -4.794665E-01  -1.229676E+00  -7.153832E-01
   3.968614E-01  -9.015148E-01   6.604448E-01
  -3.968775E-01   9.006913E-01   6.615583E-01
   1.835568E-05   8.737881E-04  -1.398190E+00
   3.513952E-02   3.200914E-01   2.535903E-01
  -3.514777E-02  -3.204092E-01   2.531902E-01
  -2.438284E-03  -4.412191E-01  -3.627581E-02
   2.440556E-03   4.412653E-01  -3.572475E-02
   3.828705E-03   1.591832E-01  -3.853961E-03
  -3.828705E-03  -1.591786E-01  -4.053229E-03
  -5.570670E-08   1.954344E-05  -3.123320E-02
===================================

 Norm of the nonadiabatic coupling vector: 
 |h(drt2.state2,drt2.state3)|= 3.74997386702443 

 Cross-check of the non-adiabatic coupling term:
  DeltaE= -0.00497016369996572

  <L>*dE form CIGRD   :    0.0000000497    -0.0000002435     0.0003624243
  <L>*dE form NADCOUPL:   -0.0005036631     0.0003927076     0.0000001673
 -------------------------------------------------------------------------
  Difference          :    0.0005037128    -0.0003929511     0.0003622570

 NOTE: This test is meaningless at a point of conical intersection!


 -------- NAD. COUPLING for DRT:2 STATE:2 AND DRT:2 STATE:4 --------
opening file =ciudgls.drt2.sp
opening file =ciudgls.drt2.sp
extracted: energy1= -285.9415075702   energy2=-285.9245847736   deltae=-0.0169227965999994
starting cigrd.x -m 200000 at Wed Jun  1 10:53:01 EDT 2022

 -------------------- cigrd.x ------------------------
 Total energy (ciudg) :     0.000000000058 
  Effective energy     :    -0.000000000087 
  Delta E              :     0.000000000145 
  --------------------------------------------------- 
 starting tran.x -m 200000  at Wed Jun  1 11:00:54 EDT 2022

 -------------------- tran.x ------------------------
 --------------------------------------------------- 
  adding keyword NONUC to alaska input
starting pymolcas molcas.input.alaska > molcas.output.alaska  at Wed Jun  1 11:06:14 EDT 2022

Generating link ln -s ./molcas.OrdInt ORDINT 
 -------------------- alaska ------------------------
 --------------------------------------------------- 
 cartesian gradient by alaska (MOLCAS)

 Calculating the Dx(r,s) term of D[CSF] nonadiabatic coupling term.
dxcalc: INPUT LINE SEPARATOR 
 
starting tran.x -m 200000  at Wed Jun  1 11:07:19 EDT 2022

 -------------------- tran.x ------------------------
 --------------------------------------------------- 
 starting tdmrunfile.x > tdmrunfilels at Wed Jun  1 11:07:19 EDT 2022

 -------------------- tdmrunfile.x ------------------------
 --------------------------------------------------- 
 starting pymolcas molcas.input.alaska > molcas.output.alaska  at Wed Jun  1 11:07:19 EDT 2022

Generating link ln -s ./molcas.OrdInt ORDINT 
 -------------------- alaska ------------------------
 --------------------------------------------------- 
 
 === Non-adiabatic coupling for DRT 2 STATE 2 and DRT 2 STATE 4 === 
   2.916794E-06   1.308314E-04  -2.090374E-01
  -2.161712E-05  -9.228225E-04   1.473019E+00
   1.627526E-01  -3.044172E-02  -2.057178E-01
  -1.627487E-01   3.069881E-02  -2.056858E-01
   7.515449E-01   9.863792E-03  -8.096835E-02
  -7.515386E-01  -9.761579E-03  -8.100241E-02
   1.055230E-05   4.377126E-04  -6.975120E-01
  -2.916584E-02  -6.788857E-03   4.065964E-03
   2.916573E-02   6.783424E-03   4.075137E-03
  -2.187889E-02   9.879764E-03  -2.654724E-02
   2.187966E-02  -9.846543E-03  -2.655852E-02
  -3.496000E-02  -1.768658E-03   2.403086E-02
   3.495971E-02   1.738245E-03   2.403474E-02
  -4.825723E-07  -4.212203E-06   6.735956E-03
===================================

 Norm of the nonadiabatic coupling vector: 
 |h(drt2.state2,drt2.state4)|= 1.99761260562602 

 Cross-check of the non-adiabatic coupling term:
  DeltaE= -0.0169227965999994

  <L>*dE form CIGRD   :    0.0000001692    -0.0000008292     0.0012340103
  <L>*dE form NADCOUPL:   -0.0000394446    -0.0065227363    -0.0000042359
 -------------------------------------------------------------------------
  Difference          :    0.0000396138     0.0065219071     0.0012382462

 NOTE: This test is meaningless at a point of conical intersection!


 -------- NAD. COUPLING for DRT:2 STATE:3 AND DRT:2 STATE:4 --------
opening file =ciudgls.drt2.sp
opening file =ciudgls.drt2.sp
extracted: energy1= -285.9365374065   energy2=-285.9245847736   deltae=-0.0119526329000337
starting cigrd.x -m 200000 at Wed Jun  1 11:08:25 EDT 2022

 -------------------- cigrd.x ------------------------
 Total energy (ciudg) :     0.000000003665 
  Effective energy     :     0.000000007186 
  Delta E              :    -0.000000003521 
  --------------------------------------------------- 
 starting tran.x -m 200000  at Wed Jun  1 11:16:20 EDT 2022

 -------------------- tran.x ------------------------
 --------------------------------------------------- 
  adding keyword NONUC to alaska input
starting pymolcas molcas.input.alaska > molcas.output.alaska  at Wed Jun  1 11:21:27 EDT 2022

Generating link ln -s ./molcas.OrdInt ORDINT 
 -------------------- alaska ------------------------
 --------------------------------------------------- 
 cartesian gradient by alaska (MOLCAS)

 Calculating the Dx(r,s) term of D[CSF] nonadiabatic coupling term.
dxcalc: INPUT LINE SEPARATOR 
 
starting tran.x -m 200000  at Wed Jun  1 11:22:29 EDT 2022

 -------------------- tran.x ------------------------
 --------------------------------------------------- 
 starting tdmrunfile.x > tdmrunfilels at Wed Jun  1 11:22:29 EDT 2022

 -------------------- tdmrunfile.x ------------------------
 --------------------------------------------------- 
 starting pymolcas molcas.input.alaska > molcas.output.alaska  at Wed Jun  1 11:22:29 EDT 2022

Generating link ln -s ./molcas.OrdInt ORDINT 
 -------------------- alaska ------------------------
 --------------------------------------------------- 
 
 === Non-adiabatic coupling for DRT 2 STATE 3 and DRT 2 STATE 4 === 
  -2.243784E-02   1.258019E-01   7.857137E-05
   2.710853E-01   8.923192E-01   5.611913E-04
  -8.729999E-01  -2.754113E-01   2.134966E-01
  -8.729999E-01  -2.751423E-01  -2.138658E-01
   8.643133E-01  -3.321379E-01   2.028201E-01
   8.643133E-01  -3.318840E-01  -2.032103E-01
  -1.109985E-01   3.351059E-01   2.082879E-04
  -6.527560E-02  -1.784623E-01  -1.422542E-01
  -6.527939E-02  -1.786402E-01   1.420290E-01
  -8.077326E-03   7.534931E-02   9.212479E-04
  -8.077351E-03   7.535033E-02  -8.275418E-04
   1.375063E-02   2.392286E-02   3.614988E-03
   1.375072E-02   2.392787E-02  -3.584653E-03
   4.944093E-03   3.879722E-02   2.435190E-05
===================================

 Norm of the nonadiabatic coupling vector: 
 |h(drt2.state3,drt2.state4)|= 2.16841519333858 

 Cross-check of the non-adiabatic coupling term:
  DeltaE= -0.0119526329000337

  <L>*dE form CIGRD   :    0.0000001195    -0.0000005857     0.0008715860
  <L>*dE form NADCOUPL:    0.0000001754    -0.0000002229     0.0008790869
 -------------------------------------------------------------------------
  Difference          :   -0.0000000559    -0.0000003628    -0.0000075009

 NOTE: This test is meaningless at a point of conical intersection!



============== timings ===================

   unik.gets.x    
   mcdrt.x        
   mcuft.x        
 * mcscf.x          walltime    0:03:01
   mcpc.x         
   mcpc.x         
   mcpc.x         
   mcpc.x         
   exptvl.x       
   exptvl.x       
   exptvl.x       
   exptvl.x       
   cidrt.x        
 * cidrt.x          walltime    0:00:06
 * tran.x           walltime    0:07:12
 * pciudg.x -m 19000   walltime   16:06:14
 * cipc.x           walltime    0:00:11
 * pciudg.x -m 19000   walltime   37:18:49
 * cipc.x           walltime    0:00:21
 * reindex.x        walltime    0:03:51
 * pciudg.x -m 19000   walltime    1:50:40
 * transci.x        walltime    0:02:13
 * transci.x        walltime    0:02:11
 * transci.x        walltime    0:02:11
 * transci.x        walltime    0:02:07
 * transci.x        walltime    0:02:09
 * transci.x        walltime    0:02:08
 * transci.x        walltime    0:04:01
 * transci.x        walltime    0:04:00
 * transci.x        walltime    0:03:58
 * transci.x        walltime    0:04:05
 * transci.x        walltime    0:03:55
 * transci.x        walltime    0:03:57
   exptvl.x       
   exptvl.x       
   exptvl.x       
   exptvl.x       
   exptvl.x       
   exptvl.x       
   exptvl.x       
   exptvl.x       
   mo_convert.x   
   mo_convert.x   
   mo_convert.x   
   mo_convert.x   
   mo_convert.x   
   mo_convert.x   
   mo_convert.x   
   mo_convert.x   
   mo_convert.x   
   mo_convert.x   
   mo_convert.x   
   mo_convert.x   
   mo_convert.x   
   mo_convert.x   
 * cidrt.x          walltime    0:00:07
 * tran.x           walltime    0:08:06
 * cigrd.x          walltime    0:07:39
 * tran.x           walltime    0:05:12
 * cigrd.x          walltime    0:07:49
 * tran.x           walltime    0:05:20
 * cigrd.x          walltime    0:08:20
 * tran.x           walltime    0:05:29
 * cigrd.x          walltime    0:08:05
 * tran.x           walltime    0:05:28
 * cigrd.x          walltime    0:07:47
 * tran.x           walltime    0:05:14
 * cigrd.x          walltime    0:07:43
 * tran.x           walltime    0:05:33
 * cigrd.x          walltime    0:08:12
 * tran.x           walltime    0:05:20
 * cigrd.x          walltime    0:08:24
 * tran.x           walltime    0:05:22
 * cigrd.x          walltime    0:07:47
 * tran.x           walltime    0:05:11
   tran.x         
   tdmrunfile.x   
 * cigrd.x          walltime    0:07:49
 * tran.x           walltime    0:05:14
   tran.x         
   tdmrunfile.x   
 * cigrd.x          walltime    0:08:14
 * tran.x           walltime    0:04:57
   tran.x         
   tdmrunfile.x   
 * cigrd.x          walltime    0:08:06
 * tran.x           walltime    0:05:02
   tran.x         
   tdmrunfile.x   
 * cigrd.x          walltime    0:08:07
 * tran.x           walltime    0:05:13
   tran.x         
   tdmrunfile.x   
 * cigrd.x          walltime    0:07:32
 * tran.x           walltime    0:05:04
   tran.x         
   tdmrunfile.x   
 * cigrd.x          walltime    0:07:46
 * tran.x           walltime    0:05:17
   tran.x         
   tdmrunfile.x   
 * cigrd.x          walltime    0:08:04
 * tran.x           walltime    0:04:56
   tran.x         
   tdmrunfile.x   
 * cigrd.x          walltime    0:08:25
 * tran.x           walltime    0:05:14
   tran.x         
   tdmrunfile.x   
 * cigrd.x          walltime    0:07:57
 * tran.x           walltime    0:04:59
   tran.x         
   tdmrunfile.x   
 * cigrd.x          walltime    0:07:51
 * tran.x           walltime    0:05:20
   tran.x         
   tdmrunfile.x   
 * cigrd.x          walltime    0:07:54
 * tran.x           walltime    0:05:06
   tran.x         
   tdmrunfile.x   

==========================================

