[Molden Format]
[Atoms] AU
  N     1    7    -4.5082829200   -0.1342819900   -0.4228200100        
  C     2    6    -1.7496705200   -0.0824342700   -0.1838819400        
  C     3    6    -0.3491890900    0.2202010900   -2.3813599000        
  C     4    6    -0.4819141000   -0.3194027500    2.1144844200        
  C     5    6     2.2679837200    0.2851297300   -2.2867536700        
  C     6    6     2.1285900100   -0.2535069600    2.1993448600        
  C     7    6     3.5096699900    0.0491470500   -0.0030301700        
  H     8    1    -5.1320741200   -2.0132111100    0.6830024400        
  H     9    1    -5.1331481600    1.1861733600    0.8837931500        
  H    10    1    -1.3260875200    0.4019365300   -4.1451509600        
  H    11    1    -1.5448115400   -0.5543420500    3.8263524900        
  H    12    1     3.3318141500    0.5199799700   -3.9976458500        
  H    13    1     3.0845146800   -0.4378414600    3.9798216900        
  H    14    1     5.5368142800    0.0998677000    0.0666404700        
[5D]
[7F]
[GTO]
  1  0
   s    12 1.00
  0.114200D+05  0.172695D-04
  0.171200D+04  0.134411D-03
  0.389300D+03  0.694561D-03
  0.110000D+03  0.278531D-02
  0.355700D+02  0.863457D-02
  0.125400D+02  0.199805D-01
  0.464400D+01  0.262908D-01
  0.129300D+01 -0.243845D-01
  0.511800D+00 -0.924934D-01
  0.178700D+00 -0.339683D+00
  0.246240D-01  0.345111D+00
  0.112530D-01  0.752750D+00
   s    10 1.00
  0.114200D+05  0.523000D-03
  0.171200D+04  0.404500D-02
  0.389300D+03  0.207750D-01
  0.110000D+03  0.807269D-01
  0.355700D+02  0.233074D+00
  0.125400D+02  0.433501D+00
  0.464400D+01  0.347472D+00
  0.129300D+01  0.412620D-01
  0.511800D+00 -0.850799D-02
  0.178700D+00  0.238400D-02
   s    10 1.00
  0.114200D+05 -0.115000D-03
  0.171200D+04 -0.895000D-03
  0.389300D+03 -0.462400D-02
  0.110000D+03 -0.185280D-01
  0.355700D+02 -0.573390D-01
  0.125400D+02 -0.132076D+00
  0.464400D+01 -0.172510D+00
  0.129300D+01  0.151814D+00
  0.511800D+00  0.599944D+00
  0.178700D+00  0.387462D+00
   s     1 1.00
  0.129300D+01  0.100000D+01
   s     1 1.00
  0.178700D+00  0.100000D+01
   p     5 1.00
  0.266300D+02  0.146700D-01
  0.594800D+01  0.917640D-01
  0.174200D+01  0.298683D+00
  0.555000D+00  0.498487D+00
  0.172500D+00  0.337023D+00
   p     1 1.00
  0.174200D+01  0.100000D+01
   p     1 1.00
  0.555000D+00  0.100000D+01
   d     1 1.00
  0.165400D+01  0.100000D+01
   d     1 1.00
  0.469000D+00  0.100000D+01
   f     1 1.00
  0.109300D+01  0.100000D+01
  
  2  0
   s    10 1.00
  0.823600D+04  0.531000D-03
  0.123500D+04  0.410800D-02
  0.280800D+03  0.210870D-01
  0.792700D+02  0.818530D-01
  0.255900D+02  0.234817D+00
  0.899700D+01  0.434401D+00
  0.331900D+01  0.346129D+00
  0.905900D+00  0.393780D-01
  0.364300D+00 -0.898300D-02
  0.128500D+00  0.238500D-02
   s    10 1.00
  0.823600D+04 -0.113000D-03
  0.123500D+04 -0.878000D-03
  0.280800D+03 -0.454000D-02
  0.792700D+02 -0.181330D-01
  0.255900D+02 -0.557600D-01
  0.899700D+01 -0.126895D+00
  0.331900D+01 -0.170352D+00
  0.905900D+00  0.140382D+00
  0.364300D+00  0.598684D+00
  0.128500D+00  0.395389D+00
   s     1 1.00
  0.905900D+00  0.100000D+01
   s     1 1.00
  0.364300D+00  0.100000D+01
   p     5 1.00
  0.187100D+02  0.140310D-01
  0.413300D+01  0.868660D-01
  0.120000D+01  0.290216D+00
  0.382700D+00  0.501008D+00
  0.120900D+00  0.343406D+00
   p     1 1.00
  0.382700D+00  0.100000D+01
   p     1 1.00
  0.120900D+00  0.100000D+01
   d     1 1.00
  0.109700D+01  0.100000D+01
   d     1 1.00
  0.318000D+00  0.100000D+01
   f     1 1.00
  0.761000D+00  0.100000D+01
  
  3  0
   s    10 1.00
  0.823600D+04  0.531000D-03
  0.123500D+04  0.410800D-02
  0.280800D+03  0.210870D-01
  0.792700D+02  0.818530D-01
  0.255900D+02  0.234817D+00
  0.899700D+01  0.434401D+00
  0.331900D+01  0.346129D+00
  0.905900D+00  0.393780D-01
  0.364300D+00 -0.898300D-02
  0.128500D+00  0.238500D-02
   s    10 1.00
  0.823600D+04 -0.113000D-03
  0.123500D+04 -0.878000D-03
  0.280800D+03 -0.454000D-02
  0.792700D+02 -0.181330D-01
  0.255900D+02 -0.557600D-01
  0.899700D+01 -0.126895D+00
  0.331900D+01 -0.170352D+00
  0.905900D+00  0.140382D+00
  0.364300D+00  0.598684D+00
  0.128500D+00  0.395389D+00
   s     1 1.00
  0.905900D+00  0.100000D+01
   s     1 1.00
  0.364300D+00  0.100000D+01
   p     5 1.00
  0.187100D+02  0.140310D-01
  0.413300D+01  0.868660D-01
  0.120000D+01  0.290216D+00
  0.382700D+00  0.501008D+00
  0.120900D+00  0.343406D+00
   p     1 1.00
  0.382700D+00  0.100000D+01
   p     1 1.00
  0.120900D+00  0.100000D+01
   d     1 1.00
  0.109700D+01  0.100000D+01
   d     1 1.00
  0.318000D+00  0.100000D+01
   f     1 1.00
  0.761000D+00  0.100000D+01
  
  4  0
   s    10 1.00
  0.823600D+04  0.531000D-03
  0.123500D+04  0.410800D-02
  0.280800D+03  0.210870D-01
  0.792700D+02  0.818530D-01
  0.255900D+02  0.234817D+00
  0.899700D+01  0.434401D+00
  0.331900D+01  0.346129D+00
  0.905900D+00  0.393780D-01
  0.364300D+00 -0.898300D-02
  0.128500D+00  0.238500D-02
   s    10 1.00
  0.823600D+04 -0.113000D-03
  0.123500D+04 -0.878000D-03
  0.280800D+03 -0.454000D-02
  0.792700D+02 -0.181330D-01
  0.255900D+02 -0.557600D-01
  0.899700D+01 -0.126895D+00
  0.331900D+01 -0.170352D+00
  0.905900D+00  0.140382D+00
  0.364300D+00  0.598684D+00
  0.128500D+00  0.395389D+00
   s     1 1.00
  0.905900D+00  0.100000D+01
   s     1 1.00
  0.364300D+00  0.100000D+01
   p     5 1.00
  0.187100D+02  0.140310D-01
  0.413300D+01  0.868660D-01
  0.120000D+01  0.290216D+00
  0.382700D+00  0.501008D+00
  0.120900D+00  0.343406D+00
   p     1 1.00
  0.382700D+00  0.100000D+01
   p     1 1.00
  0.120900D+00  0.100000D+01
   d     1 1.00
  0.109700D+01  0.100000D+01
   d     1 1.00
  0.318000D+00  0.100000D+01
   f     1 1.00
  0.761000D+00  0.100000D+01
  
  5  0
   s    10 1.00
  0.823600D+04  0.531000D-03
  0.123500D+04  0.410800D-02
  0.280800D+03  0.210870D-01
  0.792700D+02  0.818530D-01
  0.255900D+02  0.234817D+00
  0.899700D+01  0.434401D+00
  0.331900D+01  0.346129D+00
  0.905900D+00  0.393780D-01
  0.364300D+00 -0.898300D-02
  0.128500D+00  0.238500D-02
   s    10 1.00
  0.823600D+04 -0.113000D-03
  0.123500D+04 -0.878000D-03
  0.280800D+03 -0.454000D-02
  0.792700D+02 -0.181330D-01
  0.255900D+02 -0.557600D-01
  0.899700D+01 -0.126895D+00
  0.331900D+01 -0.170352D+00
  0.905900D+00  0.140382D+00
  0.364300D+00  0.598684D+00
  0.128500D+00  0.395389D+00
   s     1 1.00
  0.905900D+00  0.100000D+01
   s     1 1.00
  0.364300D+00  0.100000D+01
   p     5 1.00
  0.187100D+02  0.140310D-01
  0.413300D+01  0.868660D-01
  0.120000D+01  0.290216D+00
  0.382700D+00  0.501008D+00
  0.120900D+00  0.343406D+00
   p     1 1.00
  0.382700D+00  0.100000D+01
   p     1 1.00
  0.120900D+00  0.100000D+01
   d     1 1.00
  0.109700D+01  0.100000D+01
   d     1 1.00
  0.318000D+00  0.100000D+01
   f     1 1.00
  0.761000D+00  0.100000D+01
  
  6  0
   s    10 1.00
  0.823600D+04  0.531000D-03
  0.123500D+04  0.410800D-02
  0.280800D+03  0.210870D-01
  0.792700D+02  0.818530D-01
  0.255900D+02  0.234817D+00
  0.899700D+01  0.434401D+00
  0.331900D+01  0.346129D+00
  0.905900D+00  0.393780D-01
  0.364300D+00 -0.898300D-02
  0.128500D+00  0.238500D-02
   s    10 1.00
  0.823600D+04 -0.113000D-03
  0.123500D+04 -0.878000D-03
  0.280800D+03 -0.454000D-02
  0.792700D+02 -0.181330D-01
  0.255900D+02 -0.557600D-01
  0.899700D+01 -0.126895D+00
  0.331900D+01 -0.170352D+00
  0.905900D+00  0.140382D+00
  0.364300D+00  0.598684D+00
  0.128500D+00  0.395389D+00
   s     1 1.00
  0.905900D+00  0.100000D+01
   s     1 1.00
  0.364300D+00  0.100000D+01
   p     5 1.00
  0.187100D+02  0.140310D-01
  0.413300D+01  0.868660D-01
  0.120000D+01  0.290216D+00
  0.382700D+00  0.501008D+00
  0.120900D+00  0.343406D+00
   p     1 1.00
  0.382700D+00  0.100000D+01
   p     1 1.00
  0.120900D+00  0.100000D+01
   d     1 1.00
  0.109700D+01  0.100000D+01
   d     1 1.00
  0.318000D+00  0.100000D+01
   f     1 1.00
  0.761000D+00  0.100000D+01
  
  7  0
   s    10 1.00
  0.823600D+04  0.531000D-03
  0.123500D+04  0.410800D-02
  0.280800D+03  0.210870D-01
  0.792700D+02  0.818530D-01
  0.255900D+02  0.234817D+00
  0.899700D+01  0.434401D+00
  0.331900D+01  0.346129D+00
  0.905900D+00  0.393780D-01
  0.364300D+00 -0.898300D-02
  0.128500D+00  0.238500D-02
   s    10 1.00
  0.823600D+04 -0.113000D-03
  0.123500D+04 -0.878000D-03
  0.280800D+03 -0.454000D-02
  0.792700D+02 -0.181330D-01
  0.255900D+02 -0.557600D-01
  0.899700D+01 -0.126895D+00
  0.331900D+01 -0.170352D+00
  0.905900D+00  0.140382D+00
  0.364300D+00  0.598684D+00
  0.128500D+00  0.395389D+00
   s     1 1.00
  0.905900D+00  0.100000D+01
   s     1 1.00
  0.364300D+00  0.100000D+01
   p     5 1.00
  0.187100D+02  0.140310D-01
  0.413300D+01  0.868660D-01
  0.120000D+01  0.290216D+00
  0.382700D+00  0.501008D+00
  0.120900D+00  0.343406D+00
   p     1 1.00
  0.382700D+00  0.100000D+01
   p     1 1.00
  0.120900D+00  0.100000D+01
   d     1 1.00
  0.109700D+01  0.100000D+01
   d     1 1.00
  0.318000D+00  0.100000D+01
   f     1 1.00
  0.761000D+00  0.100000D+01
  
  8  0
   s     4 1.00
  0.130100D+02  0.196850D-01
  0.196200D+01  0.137977D+00
  0.444600D+00  0.478148D+00
  0.122000D+00  0.501240D+00
   s     1 1.00
  0.122000D+00  0.100000D+01
   p     1 1.00
  0.727000D+00  0.100000D+01
  
  9  0
   s     4 1.00
  0.130100D+02  0.196850D-01
  0.196200D+01  0.137977D+00
  0.444600D+00  0.478148D+00
  0.122000D+00  0.501240D+00
   s     1 1.00
  0.122000D+00  0.100000D+01
   p     1 1.00
  0.727000D+00  0.100000D+01
  
 10  0
   s     4 1.00
  0.130100D+02  0.196850D-01
  0.196200D+01  0.137977D+00
  0.444600D+00  0.478148D+00
  0.122000D+00  0.501240D+00
   s     1 1.00
  0.122000D+00  0.100000D+01
   p     1 1.00
  0.727000D+00  0.100000D+01
  
 11  0
   s     4 1.00
  0.130100D+02  0.196850D-01
  0.196200D+01  0.137977D+00
  0.444600D+00  0.478148D+00
  0.122000D+00  0.501240D+00
   s     1 1.00
  0.122000D+00  0.100000D+01
   p     1 1.00
  0.727000D+00  0.100000D+01
  
 12  0
   s     4 1.00
  0.130100D+02  0.196850D-01
  0.196200D+01  0.137977D+00
  0.444600D+00  0.478148D+00
  0.122000D+00  0.501240D+00
   s     1 1.00
  0.122000D+00  0.100000D+01
   p     1 1.00
  0.727000D+00  0.100000D+01
  
 13  0
   s     4 1.00
  0.130100D+02  0.196850D-01
  0.196200D+01  0.137977D+00
  0.444600D+00  0.478148D+00
  0.122000D+00  0.501240D+00
   s     1 1.00
  0.122000D+00  0.100000D+01
   p     1 1.00
  0.727000D+00  0.100000D+01
  
 14  0
   s     4 1.00
  0.130100D+02  0.196850D-01
  0.196200D+01  0.137977D+00
  0.444600D+00  0.478148D+00
  0.122000D+00  0.501240D+00
   s     1 1.00
  0.122000D+00  0.100000D+01
   p     1 1.00
  0.727000D+00  0.100000D+01
  
[MO]
 Sym= __1_A__
 Ene=   1.00000000000000     
 Spin= Alpha
 Occup=    1.00000000000000     
                     1 -5.977780848611707E-004
                     2  0.997825837034700     
                     3 -3.518904920050849E-002
                     4  1.826792923966029E-003
                     5  4.606990997385573E-003
                     6  1.343555259497649E-002
                     7 -3.182960838372178E-003
                     8  2.625062321188728E-002
                     9 -1.362056722907215E-003
                    10  6.690735959271993E-005
                    11 -1.934660159858697E-003
                    12 -3.732954130916104E-003
                    13  5.885151909019334E-004
                    14 -5.711868020134812E-003
                    15  1.606322155122126E-004
                    16  7.737615967494374E-005
                    17 -2.599701517938641E-005
                    18  5.818643120044286E-005
                    19  7.704660950488032E-006
                    20  6.949560219952269E-004
                    21  7.460371881895524E-004
                    22 -3.899724471899116E-005
                    23  1.220771974562248E-004
                    24 -1.292623984865904E-004
                    25  2.610357103767039E-005
                    26 -5.511999096170136E-005
                    27  2.143475034690084E-005
                    28  4.461560693097552E-005
                    29  1.752629866296829E-005
                    30  4.742441183745266E-005
                    31 -1.624207515586120E-005
                    32 -4.609037116694522E-004
                    33  6.095664236958450E-004
                    34  2.231795623153849E-004
                    35  1.615303870720901E-004
                    36  1.171497180273348E-003
                    37 -5.743274306901192E-005
                    38 -1.134392115499193E-003
                    39 -7.139052200392515E-004
                    40 -6.708164011763249E-005
                    41  2.866722221153937E-004
                    42  2.914359325589761E-003
                    43  3.203301257885057E-004
                    44 -1.042688549656133E-003
                    45  5.762833224591836E-005
                    46 -3.602764593174405E-004
                    47 -1.723474266218466E-005
                    48 -7.018892719554374E-005
                    49  5.130492735509620E-005
                    50 -7.108080409263120E-005
                    51 -1.883637352094196E-004
                    52  6.055791930922463E-006
                    53  2.616295278682940E-005
                    54 -1.534992132629485E-005
                    55  1.138407403422160E-004
                    56  1.933996334477438E-006
                    57  8.903423012813765E-006
                    58  1.206449686752665E-004
                    59  6.829824661331520E-006
                    60 -5.052052215364797E-005
                    61 -1.161236911822615E-005
                    62 -7.866577372423056E-004
                    63  5.766013460576016E-004
                    64 -1.422749280084907E-004
                    65  2.816920600953754E-003
                    66 -3.951520473496866E-003
                    67 -2.932274228943814E-004
                    68  9.377664047894915E-004
                    69  6.205987692300516E-004
                    70 -2.479890824465994E-005
                    71  4.890529600736588E-004
                    72  1.126254078831021E-003
                    73  2.921122434683271E-004
                    74 -2.412513159239699E-003
                    75  1.316802596403305E-004
                    76 -7.664428595545190E-005
                    77 -3.197772385933789E-005
                    78  9.801222326073529E-006
                    79  1.055584184282324E-005
                    80  6.216410442216948E-005
                    81 -3.042942610719025E-004
                    82 -2.114663762565557E-005
                    83 -1.476656361218267E-005
                    84  4.410993991232879E-005
                    85 -2.575094475450464E-005
                    86 -1.575006126346416E-004
                    87 -8.672768154307912E-006
                    88 -4.914030157999698E-006
                    89  1.878916943022392E-005
                    90 -7.064727880605198E-005
                    91  5.685469320675339E-006
                    92  3.126647665915467E-005
                    93 -1.006578536420242E-003
                    94  2.726012097440264E-004
                    95 -1.009213369494336E-003
                    96 -1.962838677800730E-004
                    97 -2.728562751489614E-004
                    98  1.152358725782807E-003
                    99  5.557708408423461E-006
                   100 -4.004912315844544E-006
                   101  1.210529764345605E-004
                   102 -1.204719911374499E-003
                   103 -6.834189467497941E-006
                   104 -5.864307733067830E-004
                   105 -5.110845952708592E-005
                   106 -6.905601235984007E-006
                   107  6.758449511444658E-006
                   108  4.769109331392514E-005
                   109  4.195423073011619E-006
                   110  5.966693668303829E-005
                   111  3.548015943766176E-004
                   112  2.063158792402790E-005
                   113 -1.248794045942676E-004
                   114 -3.867403553316353E-005
                   115 -3.403576798768282E-005
                   116  7.752220683969055E-006
                   117 -6.414782928516701E-006
                   118 -2.164794267717588E-005
                   119 -2.477120714563552E-006
                   120  1.447840953438857E-005
                   121 -6.333208809647116E-007
                   122 -2.785071283340187E-004
                   123 -2.025795747949907E-003
                   124  1.550971377346712E-004
                   125  5.208749908479585E-004
                   126  1.985683827306273E-003
                   127  1.029760851124877E-004
                   128 -1.812795095968492E-004
                   129  4.061086704650803E-004
                   130 -3.008922824788844E-005
                   131  3.173174014199557E-004
                   132  6.055019444018425E-004
                   133 -7.017185630011818E-005
                   134  9.468457490303482E-004
                   135  7.328624257302164E-005
                   136 -2.529170408427653E-005
                   137 -7.310617398767888E-006
                   138 -6.876072802014317E-005
                   139  5.370456373229358E-007
                   140  2.098595015931493E-004
                   141  7.251304938743913E-005
                   142 -7.704851960067674E-006
                   143 -2.891347867938450E-004
                   144 -2.409426676889048E-005
                   145 -6.233473118061761E-006
                   146 -3.920832995382885E-005
                   147 -6.345865715512706E-006
                   148  1.855027692307128E-005
                   149 -3.474289546365566E-006
                   150 -8.216173132503891E-005
                   151  3.725370597157025E-006
                   152 -1.105806304425451E-004
                   153 -1.805417252150281E-004
                   154 -6.989931722375858E-005
                   155  7.457121410196287E-004
                   156  4.357277293628592E-004
                   157 -3.454380889734702E-005
                   158  1.568745338660688E-004
                   159 -3.642176247600237E-004
                   160 -9.450776934010768E-006
                   161 -4.425420431616211E-005
                   162 -5.493696494189692E-005
                   163 -9.216473859593831E-005
                   164  1.006729440066706E-003
                   165  1.636411083406640E-006
                   166 -1.467835580907981E-005
                   167 -2.879197315181977E-006
                   168  1.731961573190491E-005
                   169  5.565547494984893E-006
                   170 -6.829742005001999E-005
                   171  3.841456791311005E-005
                   172  2.588386269492778E-005
                   173 -9.779464727412521E-005
                   174 -6.562361409038899E-006
                   175  1.576868048059028E-006
                   176 -1.779141790641756E-005
                   177  4.176481021282466E-007
                   178 -5.005870775118914E-008
                   179  2.477712749983869E-006
                   180 -4.188477457190507E-006
                   181 -8.559430636213418E-007
                   182 -1.098264273377139E-004
                   183 -1.125471097664418E-004
                   184  2.346904825254546E-005
                   185  2.313707545174615E-004
                   186 -2.650179856251615E-004
                   187  3.148151496914157E-005
                   188 -1.194973012818462E-004
                   189  1.389211548320208E-004
                   190 -3.616515777680837E-005
                   191  3.679321452554998E-004
                   192 -4.574543725077164E-004
                   193 -1.006168474514020E-004
                   194  6.258882780579642E-004
                   195  3.135950768671139E-005
                   196 -1.459403934138663E-005
                   197 -5.859822718564018E-006
                   198 -1.601125089176143E-005
                   199  5.084632448258617E-007
                   200 -1.901174855101544E-005
                   201 -2.005037212768378E-004
                   202 -3.465257208540073E-006
                   203 -1.067023272729830E-005
                   204  2.454819121211058E-005
                   205 -1.142329624988069E-006
                   206  4.513258310868770E-006
                   207 -1.680259515910112E-006
                   208  1.043324679428505E-005
                   209 -5.111517051057620E-007
                   210 -5.261139597437636E-006
                   211 -1.276895883593717E-006
                   212 -8.689183688765868E-004
                   213  1.437096188948997E-003
                   214  1.776378699008741E-004
                   215 -1.244180426810731E-005
                   216  2.295945627374793E-004
                   217 -3.743150732971244E-003
                   218  2.442745733197829E-003
                   219  1.003547448385660E-004
                   220  1.526076634600645E-004
                   221  4.873331025364304E-004
                   222  1.862994776219876E-003
                   223 -2.078186279263987E-003
                   224  2.292138480806829E-006
                   225 -1.629712693580637E-005
                   226  1.463639813593107E-004
                   227  5.088221448805898E-004
                   228  2.343485297657987E-004
                   229 -4.217989544060903E-005
                   230  1.102898437726457E-005
                   231 -1.099986168710249E-004
                   232  8.957397955660538E-004
                   233  1.417401533203197E-004
                   234  2.975731742416057E-006
                   235 -5.777050316006100E-006
                   236  4.952435396206183E-005
                   237  2.149733940687567E-004
                   238 -7.410373619274403E-004
                   239 -3.732132200394134E-005
                   240  1.006636293773616E-006
                   241 -2.406920385162960E-005
                   242 -3.840697355823643E-004
                   243  2.461307628660667E-004
                   244  3.411622295167899E-005
                   245  2.521298436482088E-006
                   246 -4.661790595963929E-006
 Sym= __2_A__
 Ene=   2.00000000000000     
 Spin= Alpha
 Occup=    1.00000000000000     
                     1 -4.571058044313903E-005
                     2  8.589573785228471E-005
                     3 -9.654336486603749E-004
                     4 -1.639351097351365E-005
                     5  9.707146643681031E-004
                     6  1.586481457735530E-003
                     7 -1.957649893104274E-004
                     8  1.247369654111968E-003
                     9 -1.556265315433926E-004
                    10  3.434143996331614E-006
                    11 -1.363899049425648E-004
                    12  1.436206504466488E-004
                    13  1.724445924188582E-005
                    14 -1.607078287602100E-004
                    15 -4.448073733095502E-005
                    16  3.149516980980127E-005
                    17  1.240172873392633E-006
                    18  5.139142781553738E-005
                    19  1.346075046958500E-006
                    20  6.399994713723317E-005
                    21 -5.312072966408550E-005
                    22 -3.163669040154830E-005
                    23  9.389995321271830E-005
                    24  1.924206371938181E-005
                    25 -2.946644364051951E-005
                    26  1.265094080278999E-004
                    27  1.008442309112806E-005
                    28 -6.386397681050228E-005
                    29 -6.746551958367441E-006
                    30  1.111385891410757E-004
                    31 -1.103477445012314E-006
                    32   1.00083431874246     
                    33  8.500450034900136E-003
                    34  2.850905176562619E-003
                    35 -8.436788922796616E-003
                    36 -1.203549536616794E-003
                    37 -1.060991574156170E-004
                    38  7.689622148521266E-005
                    39  7.615769545601741E-004
                    40  1.020320886041068E-004
                    41 -4.479079708862281E-004
                    42  2.399119329329691E-003
                    43  3.519509638245993E-005
                    44  4.432513284103459E-004
                    45  3.238167199866678E-004
                    46 -1.956190838219957E-005
                    47 -1.057244410544622E-004
                    48  3.032822081088358E-004
                    49  1.704313513756892E-005
                    50 -1.018091549619844E-003
                    51 -4.074073648793069E-004
                    52  2.165702016204870E-004
                    53 -1.165017470810326E-004
                    54  4.231497023292887E-005
                    55 -2.480649548546555E-005
                    56  2.527482489977660E-004
                    57  7.188660079383926E-006
                    58 -3.126388597098044E-005
                    59 -3.969362770508174E-005
                    60  6.680086313892115E-005
                    61 -1.017093991660282E-006
                    62  1.655722156203805E-002
                    63 -1.298705044991958E-003
                    64 -2.887062254439847E-004
                    65  2.731018323375313E-003
                    66 -4.752313402278648E-004
                    67 -8.129503232312469E-005
                    68  4.826750350242404E-004
                    69  2.745740856832521E-005
                    70 -3.368391480062584E-005
                    71  2.700791055652002E-004
                    72  1.742888885328571E-004
                    73  2.187032471669923E-004
                    74 -1.783325400894979E-003
                    75  1.844831762080762E-005
                    76  2.449223873276646E-005
                    77  2.319761812369312E-006
                    78 -5.046619364598150E-005
                    79 -5.391383094680323E-006
                    80 -5.711377329206426E-004
                    81 -3.863823058516808E-004
                    82  6.765004735664355E-006
                    83  8.138251790857141E-004
                    84  9.419591992201949E-005
                    85  3.439975137750324E-005
                    86  1.065562580960493E-004
                    87  1.905986273807160E-005
                    88 -3.065095996890190E-005
                    89 -2.568086692835899E-005
                    90 -2.621880761007115E-005
                    91  6.883216700284216E-006
                    92  1.878649633163264E-002
                    93 -1.744043928601226E-003
                    94 -3.433720150853352E-004
                    95  3.413984937107518E-003
                    96 -2.779194637134832E-004
                    97  1.537630760769875E-005
                    98 -3.121386857455399E-004
                    99 -1.288035057325338E-004
                   100  9.284370567339963E-005
                   101 -8.233640770172525E-004
                   102  3.920164564384762E-004
                   103 -1.679882063805058E-004
                   104  1.468582763198766E-003
                   105  8.807740995585933E-006
                   106 -1.726222747971093E-006
                   107  1.059678630236834E-006
                   108 -2.166748878903116E-005
                   109 -8.753621312674424E-007
                   110 -1.367925514873184E-004
                   111  5.428283736256018E-004
                   112 -2.500780817401470E-005
                   113  6.117134477010278E-004
                   114 -2.735965245312076E-005
                   115 -4.371120300089291E-005
                   116  8.005382562850087E-005
                   117 -1.486122195477289E-005
                   118  1.646476609235063E-005
                   119 -1.900043466175526E-005
                   120 -2.771112895214653E-005
                   121 -4.433187294472005E-007
                   122 -3.597266754385612E-005
                   123 -7.645357643364130E-004
                   124  2.457975038883416E-004
                   125 -4.407944373991867E-004
                   126  9.196403018974325E-006
                   127  4.433539872360986E-006
                   128 -6.068194379902946E-005
                   129  6.238466315746633E-004
                   130  1.135656315189675E-005
                   131  5.959519573469826E-005
                   132  2.184685260930150E-004
                   133 -4.346024500935701E-005
                   134  4.298113427142952E-004
                   135  3.218763837831156E-006
                   136  3.454896326137482E-005
                   137  5.285710036368698E-006
                   138 -4.176963936020890E-005
                   139 -6.501957579081337E-006
                   140  1.856956391619474E-004
                   141 -3.061220701911798E-004
                   142 -2.114480055664636E-005
                   143 -2.178425403761590E-004
                   144  2.400715765610981E-005
                   145 -6.754646780175641E-006
                   146  1.091597370490218E-005
                   147 -1.727036275834668E-006
                   148  3.310984479497198E-007
                   149 -4.928147803256215E-006
                   150 -1.900577193934188E-005
                   151  1.640807765522541E-006
                   152  5.525692278320210E-005
                   153 -7.695832122373399E-004
                   154  2.282222700088959E-004
                   155 -1.241917504054345E-004
                   156 -6.932451095602558E-005
                   157 -1.313400109686544E-005
                   158  4.633363193376660E-005
                   159  4.713133474673224E-004
                   160  1.543209417411634E-005