[Molden Format]
[Atoms] AU
  N     1    7    -4.4527169600    0.1631575000   -0.0245840500        
  C     2    6    -1.7700380400   -0.0156596300   -0.0109431000        
  C     3    6    -0.4229296900    0.0049888900   -2.2780586300        
  C     4    6    -0.4323673700   -0.0196996000    2.2600716700        
  C     5    6     2.1920859000    0.0063317600   -2.2603028300        
  C     6    6     2.1847036700   -0.0105903900    2.2529676300        
  C     7    6     3.5143115300    0.0003429900   -0.0004432500        
  H     8    1    -5.1873314600   -0.8151500500   -1.5198713800        
  H     9    1    -5.1844441000   -0.6107338500    1.5874844000        
  H    10    1    -1.4239273900    0.0252000300   -4.0418850700        
  H    11    1    -1.4383820500   -0.0282564500    4.0213477200        
  H    12    1     3.1982814200    0.0135296500   -4.0224847500        
  H    13    1     3.1834100700   -0.0189826700    4.0194136500        
  H    14    1     5.5421766500    0.0029228400    0.0030155500        
[5D]
[7F]
[GTO]
  1  0
   s    12 1.00
  0.114200D+05  0.172695D-04
  0.171200D+04  0.134411D-03
  0.389300D+03  0.694561D-03
  0.110000D+03  0.278531D-02
  0.355700D+02  0.863457D-02
  0.125400D+02  0.199805D-01
  0.464400D+01  0.262908D-01
  0.129300D+01 -0.243845D-01
  0.511800D+00 -0.924934D-01
  0.178700D+00 -0.339683D+00
  0.246240D-01  0.345111D+00
  0.112530D-01  0.752750D+00
   s    10 1.00
  0.114200D+05  0.523000D-03
  0.171200D+04  0.404500D-02
  0.389300D+03  0.207750D-01
  0.110000D+03  0.807269D-01
  0.355700D+02  0.233074D+00
  0.125400D+02  0.433501D+00
  0.464400D+01  0.347472D+00
  0.129300D+01  0.412620D-01
  0.511800D+00 -0.850799D-02
  0.178700D+00  0.238400D-02
   s    10 1.00
  0.114200D+05 -0.115000D-03
  0.171200D+04 -0.895000D-03
  0.389300D+03 -0.462400D-02
  0.110000D+03 -0.185280D-01
  0.355700D+02 -0.573390D-01
  0.125400D+02 -0.132076D+00
  0.464400D+01 -0.172510D+00
  0.129300D+01  0.151814D+00
  0.511800D+00  0.599944D+00
  0.178700D+00  0.387462D+00
   s     1 1.00
  0.129300D+01  0.100000D+01
   s     1 1.00
  0.178700D+00  0.100000D+01
   p     5 1.00
  0.266300D+02  0.146700D-01
  0.594800D+01  0.917640D-01
  0.174200D+01  0.298683D+00
  0.555000D+00  0.498487D+00
  0.172500D+00  0.337023D+00
   p     1 1.00
  0.174200D+01  0.100000D+01
   p     1 1.00
  0.555000D+00  0.100000D+01
   d     1 1.00
  0.165400D+01  0.100000D+01
   d     1 1.00
  0.469000D+00  0.100000D+01
   f     1 1.00
  0.109300D+01  0.100000D+01
  
  2  0
   s    10 1.00
  0.823600D+04  0.531000D-03
  0.123500D+04  0.410800D-02
  0.280800D+03  0.210870D-01
  0.792700D+02  0.818530D-01
  0.255900D+02  0.234817D+00
  0.899700D+01  0.434401D+00
  0.331900D+01  0.346129D+00
  0.905900D+00  0.393780D-01
  0.364300D+00 -0.898300D-02
  0.128500D+00  0.238500D-02
   s    10 1.00
  0.823600D+04 -0.113000D-03
  0.123500D+04 -0.878000D-03
  0.280800D+03 -0.454000D-02
  0.792700D+02 -0.181330D-01
  0.255900D+02 -0.557600D-01
  0.899700D+01 -0.126895D+00
  0.331900D+01 -0.170352D+00
  0.905900D+00  0.140382D+00
  0.364300D+00  0.598684D+00
  0.128500D+00  0.395389D+00
   s     1 1.00
  0.905900D+00  0.100000D+01
   s     1 1.00
  0.364300D+00  0.100000D+01
   p     5 1.00
  0.187100D+02  0.140310D-01
  0.413300D+01  0.868660D-01
  0.120000D+01  0.290216D+00
  0.382700D+00  0.501008D+00
  0.120900D+00  0.343406D+00
   p     1 1.00
  0.382700D+00  0.100000D+01
   p     1 1.00
  0.120900D+00  0.100000D+01
   d     1 1.00
  0.109700D+01  0.100000D+01
   d     1 1.00
  0.318000D+00  0.100000D+01
   f     1 1.00
  0.761000D+00  0.100000D+01
  
  3  0
   s    10 1.00
  0.823600D+04  0.531000D-03
  0.123500D+04  0.410800D-02
  0.280800D+03  0.210870D-01
  0.792700D+02  0.818530D-01
  0.255900D+02  0.234817D+00
  0.899700D+01  0.434401D+00
  0.331900D+01  0.346129D+00
  0.905900D+00  0.393780D-01
  0.364300D+00 -0.898300D-02
  0.128500D+00  0.238500D-02
   s    10 1.00
  0.823600D+04 -0.113000D-03
  0.123500D+04 -0.878000D-03
  0.280800D+03 -0.454000D-02
  0.792700D+02 -0.181330D-01
  0.255900D+02 -0.557600D-01
  0.899700D+01 -0.126895D+00
  0.331900D+01 -0.170352D+00
  0.905900D+00  0.140382D+00
  0.364300D+00  0.598684D+00
  0.128500D+00  0.395389D+00
   s     1 1.00
  0.905900D+00  0.100000D+01
   s     1 1.00
  0.364300D+00  0.100000D+01
   p     5 1.00
  0.187100D+02  0.140310D-01
  0.413300D+01  0.868660D-01
  0.120000D+01  0.290216D+00
  0.382700D+00  0.501008D+00
  0.120900D+00  0.343406D+00
   p     1 1.00
  0.382700D+00  0.100000D+01
   p     1 1.00
  0.120900D+00  0.100000D+01
   d     1 1.00
  0.109700D+01  0.100000D+01
   d     1 1.00
  0.318000D+00  0.100000D+01
   f     1 1.00
  0.761000D+00  0.100000D+01
  
  4  0
   s    10 1.00
  0.823600D+04  0.531000D-03
  0.123500D+04  0.410800D-02
  0.280800D+03  0.210870D-01
  0.792700D+02  0.818530D-01
  0.255900D+02  0.234817D+00
  0.899700D+01  0.434401D+00
  0.331900D+01  0.346129D+00
  0.905900D+00  0.393780D-01
  0.364300D+00 -0.898300D-02
  0.128500D+00  0.238500D-02
   s    10 1.00
  0.823600D+04 -0.113000D-03
  0.123500D+04 -0.878000D-03
  0.280800D+03 -0.454000D-02
  0.792700D+02 -0.181330D-01
  0.255900D+02 -0.557600D-01
  0.899700D+01 -0.126895D+00
  0.331900D+01 -0.170352D+00
  0.905900D+00  0.140382D+00
  0.364300D+00  0.598684D+00
  0.128500D+00  0.395389D+00
   s     1 1.00
  0.905900D+00  0.100000D+01
   s     1 1.00
  0.364300D+00  0.100000D+01
   p     5 1.00
  0.187100D+02  0.140310D-01
  0.413300D+01  0.868660D-01
  0.120000D+01  0.290216D+00
  0.382700D+00  0.501008D+00
  0.120900D+00  0.343406D+00
   p     1 1.00
  0.382700D+00  0.100000D+01
   p     1 1.00
  0.120900D+00  0.100000D+01
   d     1 1.00
  0.109700D+01  0.100000D+01
   d     1 1.00
  0.318000D+00  0.100000D+01
   f     1 1.00
  0.761000D+00  0.100000D+01
  
  5  0
   s    10 1.00
  0.823600D+04  0.531000D-03
  0.123500D+04  0.410800D-02
  0.280800D+03  0.210870D-01
  0.792700D+02  0.818530D-01
  0.255900D+02  0.234817D+00
  0.899700D+01  0.434401D+00
  0.331900D+01  0.346129D+00
  0.905900D+00  0.393780D-01
  0.364300D+00 -0.898300D-02
  0.128500D+00  0.238500D-02
   s    10 1.00
  0.823600D+04 -0.113000D-03
  0.123500D+04 -0.878000D-03
  0.280800D+03 -0.454000D-02
  0.792700D+02 -0.181330D-01
  0.255900D+02 -0.557600D-01
  0.899700D+01 -0.126895D+00
  0.331900D+01 -0.170352D+00
  0.905900D+00  0.140382D+00
  0.364300D+00  0.598684D+00
  0.128500D+00  0.395389D+00
   s     1 1.00
  0.905900D+00  0.100000D+01
   s     1 1.00
  0.364300D+00  0.100000D+01
   p     5 1.00
  0.187100D+02  0.140310D-01
  0.413300D+01  0.868660D-01
  0.120000D+01  0.290216D+00
  0.382700D+00  0.501008D+00
  0.120900D+00  0.343406D+00
   p     1 1.00
  0.382700D+00  0.100000D+01
   p     1 1.00
  0.120900D+00  0.100000D+01
   d     1 1.00
  0.109700D+01  0.100000D+01
   d     1 1.00
  0.318000D+00  0.100000D+01
   f     1 1.00
  0.761000D+00  0.100000D+01
  
  6  0
   s    10 1.00
  0.823600D+04  0.531000D-03
  0.123500D+04  0.410800D-02
  0.280800D+03  0.210870D-01
  0.792700D+02  0.818530D-01
  0.255900D+02  0.234817D+00
  0.899700D+01  0.434401D+00
  0.331900D+01  0.346129D+00
  0.905900D+00  0.393780D-01
  0.364300D+00 -0.898300D-02
  0.128500D+00  0.238500D-02
   s    10 1.00
  0.823600D+04 -0.113000D-03
  0.123500D+04 -0.878000D-03
  0.280800D+03 -0.454000D-02
  0.792700D+02 -0.181330D-01
  0.255900D+02 -0.557600D-01
  0.899700D+01 -0.126895D+00
  0.331900D+01 -0.170352D+00
  0.905900D+00  0.140382D+00
  0.364300D+00  0.598684D+00
  0.128500D+00  0.395389D+00
   s     1 1.00
  0.905900D+00  0.100000D+01
   s     1 1.00
  0.364300D+00  0.100000D+01
   p     5 1.00
  0.187100D+02  0.140310D-01
  0.413300D+01  0.868660D-01
  0.120000D+01  0.290216D+00
  0.382700D+00  0.501008D+00
  0.120900D+00  0.343406D+00
   p     1 1.00
  0.382700D+00  0.100000D+01
   p     1 1.00
  0.120900D+00  0.100000D+01
   d     1 1.00
  0.109700D+01  0.100000D+01
   d     1 1.00
  0.318000D+00  0.100000D+01
   f     1 1.00
  0.761000D+00  0.100000D+01
  
  7  0
   s    10 1.00
  0.823600D+04  0.531000D-03
  0.123500D+04  0.410800D-02
  0.280800D+03  0.210870D-01
  0.792700D+02  0.818530D-01
  0.255900D+02  0.234817D+00
  0.899700D+01  0.434401D+00
  0.331900D+01  0.346129D+00
  0.905900D+00  0.393780D-01
  0.364300D+00 -0.898300D-02
  0.128500D+00  0.238500D-02
   s    10 1.00
  0.823600D+04 -0.113000D-03
  0.123500D+04 -0.878000D-03
  0.280800D+03 -0.454000D-02
  0.792700D+02 -0.181330D-01
  0.255900D+02 -0.557600D-01
  0.899700D+01 -0.126895D+00
  0.331900D+01 -0.170352D+00
  0.905900D+00  0.140382D+00
  0.364300D+00  0.598684D+00
  0.128500D+00  0.395389D+00
   s     1 1.00
  0.905900D+00  0.100000D+01
   s     1 1.00
  0.364300D+00  0.100000D+01
   p     5 1.00
  0.187100D+02  0.140310D-01
  0.413300D+01  0.868660D-01
  0.120000D+01  0.290216D+00
  0.382700D+00  0.501008D+00
  0.120900D+00  0.343406D+00
   p     1 1.00
  0.382700D+00  0.100000D+01
   p     1 1.00
  0.120900D+00  0.100000D+01
   d     1 1.00
  0.109700D+01  0.100000D+01
   d     1 1.00
  0.318000D+00  0.100000D+01
   f     1 1.00
  0.761000D+00  0.100000D+01
  
  8  0
   s     4 1.00
  0.130100D+02  0.196850D-01
  0.196200D+01  0.137977D+00
  0.444600D+00  0.478148D+00
  0.122000D+00  0.501240D+00
   s     1 1.00
  0.122000D+00  0.100000D+01
   p     1 1.00
  0.727000D+00  0.100000D+01
  
  9  0
   s     4 1.00
  0.130100D+02  0.196850D-01
  0.196200D+01  0.137977D+00
  0.444600D+00  0.478148D+00
  0.122000D+00  0.501240D+00
   s     1 1.00
  0.122000D+00  0.100000D+01
   p     1 1.00
  0.727000D+00  0.100000D+01
  
 10  0
   s     4 1.00
  0.130100D+02  0.196850D-01
  0.196200D+01  0.137977D+00
  0.444600D+00  0.478148D+00
  0.122000D+00  0.501240D+00
   s     1 1.00
  0.122000D+00  0.100000D+01
   p     1 1.00
  0.727000D+00  0.100000D+01
  
 11  0
   s     4 1.00
  0.130100D+02  0.196850D-01
  0.196200D+01  0.137977D+00
  0.444600D+00  0.478148D+00
  0.122000D+00  0.501240D+00
   s     1 1.00
  0.122000D+00  0.100000D+01
   p     1 1.00
  0.727000D+00  0.100000D+01
  
 12  0
   s     4 1.00
  0.130100D+02  0.196850D-01
  0.196200D+01  0.137977D+00
  0.444600D+00  0.478148D+00
  0.122000D+00  0.501240D+00
   s     1 1.00
  0.122000D+00  0.100000D+01
   p     1 1.00
  0.727000D+00  0.100000D+01
  
 13  0
   s     4 1.00
  0.130100D+02  0.196850D-01
  0.196200D+01  0.137977D+00
  0.444600D+00  0.478148D+00
  0.122000D+00  0.501240D+00
   s     1 1.00
  0.122000D+00  0.100000D+01
   p     1 1.00
  0.727000D+00  0.100000D+01
  
 14  0
   s     4 1.00
  0.130100D+02  0.196850D-01
  0.196200D+01  0.137977D+00
  0.444600D+00  0.478148D+00
  0.122000D+00  0.501240D+00
   s     1 1.00
  0.122000D+00  0.100000D+01
   p     1 1.00
  0.727000D+00  0.100000D+01
  
[MO]
 Sym= __1_a__
 Ene=  0.000000000000000E+000
 Spin= Alpha
 Occup=    2.00000000000000     
                     1  2.224336264015410E-004
                     2  0.998066515423627     
                     3  4.206067708695920E-003
                     4  1.919634077507280E-003
                     5  5.420090605843760E-003
                     6  5.448577332672210E-003
                     7 -4.758191940475490E-003
                     8  4.130094719167820E-004
                     9 -7.501858150749250E-004
                    10  2.370649524707090E-004
                    11 -4.607644626631140E-005
                    12 -1.331597659650200E-003
                    13  3.092861492410140E-003
                    14 -2.513058115921020E-004
                    15 -5.384103144415257E-006
                    16 -6.846070781850370E-006
                    17  6.044629501185530E-007
                    18  7.988136840179780E-005
                    19  6.423501752301019E-005
                    20 -3.842959616621354E-004
                    21  4.995683935771150E-005
                    22 -2.532493697174230E-005
                    23  4.743095820227060E-005
                    24 -4.846810607733550E-004
                    25 -1.182532738774669E-005
                    26 -1.465818659601221E-004
                    27 -7.169447079420285E-005
                    28  1.287320413618330E-005
                    29 -5.060865512420770E-006
                    30 -9.897980667029812E-005
                    31 -5.877051707037776E-005
                    32 -3.912580201622030E-004
                    33  9.759490950670720E-004
                    34  2.414249714844680E-004
                    35 -1.116311857204180E-004
                    36 -4.515751982078660E-003
                    37 -2.625783006271530E-006
                    38 -2.511662692004300E-005
                    39  2.032091266334770E-004
                    40 -1.269335891120890E-005
                    41  7.274484475217769E-005
                    42  4.854969874588640E-003
                    43  7.820863433468930E-004
                    44 -3.624632198088600E-004
                    45 -2.282927200962468E-004
                    46  4.053974825127100E-006
                    47  1.222481192796440E-006
                    48  2.100928178655320E-004
                    49  4.768721453763620E-005
                    50  4.621444531266850E-004
                    51  5.455746543596520E-005
                    52 -8.429277673598160E-006
                    53 -4.686602812953040E-005
                    54 -3.537722346937600E-004
                    55  4.097977561333518E-006
                    56 -6.231772028174559E-005
                    57  1.108804645683782E-005
                    58  2.849026749508920E-006
                    59  3.214131900753800E-007
                    60 -3.490877862933603E-005
                    61  3.624131382680553E-005
                    62 -3.893339851591860E-004
                    63 -1.918380064542570E-003
                    64  8.233655744100870E-005
                    65  9.963737581659500E-004
                    66  5.975547840434350E-004
                    67 -8.767376248651760E-005
                    68 -6.144127387615870E-004
                    69  6.353043750829900E-004
                    70  8.186446704368940E-005
                    71  1.538188409376820E-004
                    72 -2.527671497302190E-004
                    73 -3.520853630215700E-004
                    74 -8.873407099139900E-004
                    75 -7.624088746574978E-005
                    76 -1.391409785485040E-005
                    77  1.879117038493350E-005
                    78  6.468000654434140E-005
                    79 -9.409270094681200E-006
                    80  1.976036329417427E-004
                    81  1.855585142143770E-004
                    82 -2.989668501226220E-005
                    83 -1.051089696699112E-004
                    84  5.167964064741250E-005
                    85 -9.779032894056489E-006
                    86 -6.434380470970149E-005
                    87  2.124718718035506E-005
                    88 -1.044414571787652E-005
                    89  1.312146546250970E-005
                    90 -4.962895634611027E-005
                    91 -1.173446386057200E-005
                    92 -3.235803106422370E-004
                    93 -1.702626839095870E-003
                    94  1.116383336940220E-004
                    95  6.805836761585690E-004
                    96  6.212983651554390E-004
                    97 -8.813165259012211E-005
                    98  5.924446431425550E-004
                    99  5.570258876780070E-004
                   100  8.559184625194920E-005
                   101 -6.844883348138660E-005
                   102 -6.907806751781089E-004
                   103 -3.578687288048420E-004
                   104  7.041170896277200E-004
                   105 -7.584209448807788E-005
                   106  1.152332543933420E-005
                   107 -1.769893257327410E-005
                   108  6.067209173613760E-005
                   109 -9.891967482885270E-006
                   110  1.616163864381356E-004
                   111 -1.860652297125350E-004
                   112  2.408486792141750E-005
                   113 -1.314989100564442E-004
                   114  5.669629168825010E-005
                   115  5.770792566545918E-006
                   116 -4.731283400959753E-005
                   117  2.106296289606531E-005
                   118  1.272895302357428E-005
                   119 -1.281068635597780E-005
                   120 -4.293781338856378E-005
                   121 -1.089843679992481E-005
                   122 -1.973700307434960E-004
                   123 -3.253380699527360E-004
                   124  6.121029596785010E-005
                   125  5.609045051739061E-004
                   126 -5.675680198347110E-004
                   127 -3.359195011167360E-005
                   128  1.970734229890340E-005
                   129  2.685344343900390E-004
                   130 -2.461407986646370E-005
                   131  3.782230887139610E-005
                   132  1.060502183110160E-003
                   133  1.583911239504900E-004
                   134 -1.806287746563590E-004
                   135  6.777341991725894E-006
                   136  5.772472300151170E-007
                   137 -4.009939763602150E-006
                   138 -1.621517687814022E-006
                   139  9.350066940273100E-006
                   140  9.579574223104700E-005
                   141  2.089051410707880E-004
                   142  9.380690893497581E-006
                   143 -2.055587638983860E-004
                   144 -1.740232229004800E-005
                   145 -1.356705878709899E-005
                   146 -1.569405818119641E-005
                   147  2.385158312025133E-006
                   148 -4.959073455509760E-006
                   149 -1.930971548289290E-006
                   150 -4.870893304227907E-005
                   151 -1.317576840410792E-006
                   152 -1.785391013054660E-004
                   153 -2.642755188852720E-004
                   154  4.533404837157470E-005
                   155  5.270588301625649E-004
                   156 -5.569522632690420E-004
                   157 -3.254410374349370E-005
                   158 -3.019875301468710E-005
                   159  1.784377148595490E-004
                   160 -2.642158258592790E-005
                   161  1.971595053460320E-005
                   162  6.261188154510730E-004
                   163  1.515554530922370E-004
                   164  3.603763900268230E-004
                   165  1.697773369605982E-006
                   166  6.894098886318730E-007
                   167  3.809675782949050E-006
                   168  2.219634638302560E-006
                   169  8.879114004843120E-006
                   170  5.419660193157739E-005
                   171 -1.749479040621580E-004
                   172 -7.824147713176810E-006
                   173 -1.599920384840042E-004
                   174 -1.296705781163030E-005
                   175  8.589218203164344E-006
                   176 -1.400930829701055E-005
                   177  2.722111546158509E-006
                   178  3.355387426644660E-006
                   179  1.454218653980540E-006
                   180 -4.041940417991022E-005
                   181 -1.797589830206315E-006
                   182 -1.245546626429260E-004
                   183 -3.854893792016440E-004
                   184  2.714358568373770E-005
                   185  1.501277246574650E-004
                   186 -1.643054420377570E-005
                   187 -4.308791546020240E-005
                   188 -1.035198285496040E-005
                   189  9.411843769360489E-005
                   190  2.181680163601460E-005
                   191  4.400834081859790E-005
                   192 -3.656134488424640E-004
                   193 -1.100955516212100E-004
                   194  2.392916906914910E-004
                   195 -1.042496907829361E-005
                   196  3.670017266231900E-007
                   197 -9.696326421746851E-009
                   198  4.169062759915800E-006
                   199 -2.359587315787480E-006
                   200 -1.135923875611755E-004
                   201 -3.638620520072230E-005
                   202  5.068358064030430E-007
                   203  6.392822321361320E-005
                   204  1.704412732347560E-005
                   205  4.177240641360705E-007
                   206  9.038755016724325E-007
                   207  3.105784929196207E-006
                   208  2.875056231974360E-006
                   209 -1.343174768150980E-007
                   210 -5.617538118246158E-006
                   211 -2.632021688311288E-006
                   212  2.826651647185530E-003
                   213 -2.213843438423660E-003
                   214  1.845936727147740E-004
                   215  3.245910694655220E-004
                   216  3.496411611917360E-004
                   217  2.893442057934730E-003
                   218 -2.247951134812640E-003
                   219  1.916861588783230E-004
                   220  2.780188713496800E-004
                   221 -4.000209818672120E-004
                   222 -5.158156048885080E-004
                   223 -3.006758589985050E-004
                   224 -6.375251098352400E-005
                   225  9.679136427626579E-006
                   226  3.647146980699170E-005
                   227 -5.020546141950520E-004
                   228 -3.134650597412350E-004
                   229 -5.878091074909680E-005
                   230  1.065132496670750E-005
                   231 -3.834219482807290E-005
                   232 -1.162854733010860E-004
                   233 -4.871471884607210E-004
                   234  4.099051229903880E-006
                   235 -1.440124105202710E-006
                   236 -8.501182465380371E-006
                   237 -1.265426929386260E-004
                   238 -4.488555861724800E-004
                   239  6.143432075341480E-006
                   240 -1.773198648918300E-006
                   241  1.066271629630880E-005
                   242  1.988847618174580E-005
                   243  1.155047046138070E-004
                   244  2.970852947193530E-005
                   245  1.801663880268940E-006
                   246  3.045294375587860E-007
 Sym= __2_a__
 Ene=  0.000000000000000E+000
 Spin= Alpha
 Occup=    2.00000000000000     
                     1 -2.126446897121430E-005
                     2 -8.375133535229511E-005
                     3  1.977187774975450E-003
                     4 -1.232209961819220E-005
                     5  1.248669340357930E-003
                     6  1.958432774645720E-003
                     7  3.107262521026970E-004
                     8 -3.448258288208390E-005
                     9 -1.488827855389200E-004
                    10  9.871789782482659E-005
                    11 -3.725746087420520E-006
                    12  3.498635699907200E-005
                    13  4.269798356620320E-005
                    14  1.306657838318900E-005
                    15 -7.294407146281371E-005
                    16  1.903565853658830E-006
                    17 -1.596558052761470E-006
                    18  3.967240664511760E-005
                    19 -3.036519045718050E-006
                    20  1.885328228796933E-004
                    21 -1.178230292300100E-005
                    22  4.808835171277400E-006
                    23  9.737377098394240E-005
                    24 -3.973772577953010E-005
                    25 -1.050661580298888E-005
                    26  1.398452924054509E-004
                    27 -5.742870402010112E-005
                    28  3.804803625252920E-007
                    29  3.279106706109910E-007
                    30  1.284678974473472E-004
                    31  3.611539172404500E-005
                    32   1.00097053121932     
                    33  8.778912594333180E-003
                    34  2.780465200890270E-003
                    35 -8.215065484914959E-003
                    36 -2.612022017371110E-003
                    37  7.065412847979670E-004
                    38  1.098495118322150E-006
                    39  1.098080143524140E-003
                    40 -2.276225871103100E-004
                    41 -1.377930428043380E-005
                    42  3.474434512087860E-003
                    43 -1.296170672289150E-004
                    44 -3.292775201536360E-005
                    45  2.960895600738448E-004
                    46  3.498579820687090E-006
                    47 -2.462081190753970E-006
                    48  4.202328236812880E-004
                    49 -2.506669226512520E-005
                    50 -1.048056400443772E-003
                    51 -2.245621456394420E-005
                    52  1.143168229057840E-005
                    53 -1.102239104668044E-004
                    54  3.257102483717970E-005
                    55 -1.480447151172405E-006
                    56  3.133189729841678E-004
                    57 -8.638510341306857E-006
                    58 -2.218661343104980E-006
                    59 -6.146903073135930E-007
                    60  8.253672240608954E-005
                    61  1.904951161578601E-005
                    62  1.229802560279620E-002
                    63 -1.872708172570840E-003
                    64 -3.091002671700850E-004
                    65  3.136091260876850E-003
                    66 -1.439814256786250E-004
                    67  1.249836306500890E-004
                    68  2.584754914521940E-004
                    69  2.985896851003840E-005
                    70 -5.008472490146460E-007
                    71  5.056867080970300E-004
                    72  1.889184620090370E-004
                    73 -2.284054775459540E-005
                    74 -1.850481708681360E-003
                    75 -1.058890902699597E-005
                    76  2.516051445352080E-005
                    77  9.075869944115319E-006
                    78 -3.610932015764440E-005
                    79 -4.933533692322160E-006
                    80 -4.258809112291034E-004
                    81 -4.646703871633460E-004
                    82  1.277561473245990E-006
                    83  7.650185214524380E-004
                    84 -1.199513719816620E-006
                    85  5.082900519432009E-005
                    86  1.084618825343437E-004
                    87  1.645234717437025E-006
                    88 -1.606200165256818E-005
                    89 -7.986986517420110E-006
                    90 -2.879787432444816E-005
                    91  4.912470760926118E-006
                    92  1.249869106535850E-002
                    93 -1.858698140852910E-003
                    94 -3.168236205078440E-004
                    95  3.172928849011710E-003
                    96 -1.501738729450550E-004
                    97  1.284939957023760E-004
                    98 -2.556547780807940E-004
                    99  2.617021659011020E-005
                   100  5.437630236200170E-006
                   101 -5.354135578203390E-004
                   102  1.244548581619210E-004
                   103 -4.211711539285940E-005
                   104  1.836585732465930E-003
                   105 -9.858932819230767E-006
                   106 -2.416328381738310E-005
                   107 -8.305762323671069E-006
                   108 -3.550170158481940E-005
                   109 -4.886646243713080E-006
                   110 -4.132645994979494E-004
                   111  4.738145013704790E-004
                   112 -1.039099271622010E-006
                   113  7.572643325163480E-004
                   114 -3.639887065365960E-006
                   115 -5.132297630104417E-005
                   116  1.064849458864754E-004
                   117 -3.856862923480401E-007
                   118  1.676516066486932E-005
                   119  5.792543547540870E-006
                   120 -3.032051788093083E-005
                   121  5.246179434448754E-006
                   122 -1.507868663735710E-004
                   123 -7.186032970296930E-004
                   124  2.512938325791100E-004
                   125 -3.153725110350400E-004
                   126 -1.911768855992400E-004
                   127  2.458628921011730E-005
                   128 -4.432065969925320E-005
                   129  6.015312052773950E-004
                   130 -3.186678035808440E-006
                   131  4.714397245524460E-005
                   132  6.051370705198640E-004
                   133  1.228325902688950E-006
                   134  3.520908182171710E-004
                   135 -2.001258763769322E-008
                   136  4.195097016337040E-005
                   137  1.935692147621720E-007
                   138 -3.355609882255440E-005
                   139 -1.668221089275390E-006
                   140  1.953490764182586E-004
                   141 -2.628246253799740E-004
                   142  2.135927034488890E-006
                   143 -2.657811942862380E-004
                   144 -2.438517939622040E-006
                   145 -1.807104418181721E-005
                   146  1.362093954970852E-005
                   147  3.344591024688268E-008
                   148 -1.283215483573772E-005
                   149 -2.185426548025900E-006
                   150 -2.527925127878893E-005
                   151 -5.552811301985113E-007
                   152 -1.458858802611450E-004
                   153 -7.089877522091841E-004
                   154  2.541523666495090E-004
                   155 -3.317827818000380E-004
                   156 -1.892079574037170E-004
                   157  2.240628470825140E-005
                   158  4.136021263310820E-005
                   159  5.991550882674030E-004
                   160 -2.569232881152200E-007