[Molden Format]
[Atoms] AU
  N     1    7     0.0000000000    0.0000000000   -4.2907334100        
  C     2    6     0.0000000000    0.0000000000   -1.7772236300        
  C     3    6     0.0000000000   -2.3389203600   -0.4111016300        
  C     4    6     0.0000000000    2.3389203600   -0.4111016300        
  C     5    6     0.0000000000   -2.2998668500    2.1639215300        
  C     6    6     0.0000000000    2.2998668500    2.1639215300        
  C     7    6     0.0000000000    0.0000000000    3.4755251800        
  H     8    1     0.0000000000   -1.9299607200   -5.4813572000        
  H     9    1     0.0000000000    1.9299607200   -5.4813572000        
  H    10    1     0.0000000000   -4.0745407300   -1.4447408500        
  H    11    1     0.0000000000    4.0745407300   -1.4447408500        
  H    12    1     0.0000000000   -4.0420632100    3.1963889500        
  H    13    1     0.0000000000    4.0420632100    3.1963889500        
  H    14    1     0.0000000000    0.0000000000    5.5020335600        
[5D]
[7F]
[GTO]
  1  0
   s    12 1.00
  0.114200D+05  0.172695D-04
  0.171200D+04  0.134411D-03
  0.389300D+03  0.694561D-03
  0.110000D+03  0.278531D-02
  0.355700D+02  0.863457D-02
  0.125400D+02  0.199805D-01
  0.464400D+01  0.262908D-01
  0.129300D+01 -0.243845D-01
  0.511800D+00 -0.924934D-01
  0.178700D+00 -0.339683D+00
  0.246240D-01  0.345111D+00
  0.112530D-01  0.752750D+00
   s    10 1.00
  0.114200D+05  0.523000D-03
  0.171200D+04  0.404500D-02
  0.389300D+03  0.207750D-01
  0.110000D+03  0.807269D-01
  0.355700D+02  0.233074D+00
  0.125400D+02  0.433501D+00
  0.464400D+01  0.347472D+00
  0.129300D+01  0.412620D-01
  0.511800D+00 -0.850799D-02
  0.178700D+00  0.238400D-02
   s    10 1.00
  0.114200D+05 -0.115000D-03
  0.171200D+04 -0.895000D-03
  0.389300D+03 -0.462400D-02
  0.110000D+03 -0.185280D-01
  0.355700D+02 -0.573390D-01
  0.125400D+02 -0.132076D+00
  0.464400D+01 -0.172510D+00
  0.129300D+01  0.151814D+00
  0.511800D+00  0.599944D+00
  0.178700D+00  0.387462D+00
   s     1 1.00
  0.129300D+01  0.100000D+01
   s     1 1.00
  0.178700D+00  0.100000D+01
   p     5 1.00
  0.266300D+02  0.146700D-01
  0.594800D+01  0.917640D-01
  0.174200D+01  0.298683D+00
  0.555000D+00  0.498487D+00
  0.172500D+00  0.337023D+00
   p     1 1.00
  0.174200D+01  0.100000D+01
   p     1 1.00
  0.555000D+00  0.100000D+01
   d     1 1.00
  0.165400D+01  0.100000D+01
   d     1 1.00
  0.469000D+00  0.100000D+01
   f     1 1.00
  0.109300D+01  0.100000D+01
  
  2  0
   s    10 1.00
  0.823600D+04  0.531000D-03
  0.123500D+04  0.410800D-02
  0.280800D+03  0.210870D-01
  0.792700D+02  0.818530D-01
  0.255900D+02  0.234817D+00
  0.899700D+01  0.434401D+00
  0.331900D+01  0.346129D+00
  0.905900D+00  0.393780D-01
  0.364300D+00 -0.898300D-02
  0.128500D+00  0.238500D-02
   s    10 1.00
  0.823600D+04 -0.113000D-03
  0.123500D+04 -0.878000D-03
  0.280800D+03 -0.454000D-02
  0.792700D+02 -0.181330D-01
  0.255900D+02 -0.557600D-01
  0.899700D+01 -0.126895D+00
  0.331900D+01 -0.170352D+00
  0.905900D+00  0.140382D+00
  0.364300D+00  0.598684D+00
  0.128500D+00  0.395389D+00
   s     1 1.00
  0.905900D+00  0.100000D+01
   s     1 1.00
  0.364300D+00  0.100000D+01
   p     5 1.00
  0.187100D+02  0.140310D-01
  0.413300D+01  0.868660D-01
  0.120000D+01  0.290216D+00
  0.382700D+00  0.501008D+00
  0.120900D+00  0.343406D+00
   p     1 1.00
  0.382700D+00  0.100000D+01
   p     1 1.00
  0.120900D+00  0.100000D+01
   d     1 1.00
  0.109700D+01  0.100000D+01
   d     1 1.00
  0.318000D+00  0.100000D+01
   f     1 1.00
  0.761000D+00  0.100000D+01
  
  3  0
   s    10 1.00
  0.823600D+04  0.531000D-03
  0.123500D+04  0.410800D-02
  0.280800D+03  0.210870D-01
  0.792700D+02  0.818530D-01
  0.255900D+02  0.234817D+00
  0.899700D+01  0.434401D+00
  0.331900D+01  0.346129D+00
  0.905900D+00  0.393780D-01
  0.364300D+00 -0.898300D-02
  0.128500D+00  0.238500D-02
   s    10 1.00
  0.823600D+04 -0.113000D-03
  0.123500D+04 -0.878000D-03
  0.280800D+03 -0.454000D-02
  0.792700D+02 -0.181330D-01
  0.255900D+02 -0.557600D-01
  0.899700D+01 -0.126895D+00
  0.331900D+01 -0.170352D+00
  0.905900D+00  0.140382D+00
  0.364300D+00  0.598684D+00
  0.128500D+00  0.395389D+00
   s     1 1.00
  0.905900D+00  0.100000D+01
   s     1 1.00
  0.364300D+00  0.100000D+01
   p     5 1.00
  0.187100D+02  0.140310D-01
  0.413300D+01  0.868660D-01
  0.120000D+01  0.290216D+00
  0.382700D+00  0.501008D+00
  0.120900D+00  0.343406D+00
   p     1 1.00
  0.382700D+00  0.100000D+01
   p     1 1.00
  0.120900D+00  0.100000D+01
   d     1 1.00
  0.109700D+01  0.100000D+01
   d     1 1.00
  0.318000D+00  0.100000D+01
   f     1 1.00
  0.761000D+00  0.100000D+01
  
  4  0
   s    10 1.00
  0.823600D+04  0.531000D-03
  0.123500D+04  0.410800D-02
  0.280800D+03  0.210870D-01
  0.792700D+02  0.818530D-01
  0.255900D+02  0.234817D+00
  0.899700D+01  0.434401D+00
  0.331900D+01  0.346129D+00
  0.905900D+00  0.393780D-01
  0.364300D+00 -0.898300D-02
  0.128500D+00  0.238500D-02
   s    10 1.00
  0.823600D+04 -0.113000D-03
  0.123500D+04 -0.878000D-03
  0.280800D+03 -0.454000D-02
  0.792700D+02 -0.181330D-01
  0.255900D+02 -0.557600D-01
  0.899700D+01 -0.126895D+00
  0.331900D+01 -0.170352D+00
  0.905900D+00  0.140382D+00
  0.364300D+00  0.598684D+00
  0.128500D+00  0.395389D+00
   s     1 1.00
  0.905900D+00  0.100000D+01
   s     1 1.00
  0.364300D+00  0.100000D+01
   p     5 1.00
  0.187100D+02  0.140310D-01
  0.413300D+01  0.868660D-01
  0.120000D+01  0.290216D+00
  0.382700D+00  0.501008D+00
  0.120900D+00  0.343406D+00
   p     1 1.00
  0.382700D+00  0.100000D+01
   p     1 1.00
  0.120900D+00  0.100000D+01
   d     1 1.00
  0.109700D+01  0.100000D+01
   d     1 1.00
  0.318000D+00  0.100000D+01
   f     1 1.00
  0.761000D+00  0.100000D+01
  
  5  0
   s    10 1.00
  0.823600D+04  0.531000D-03
  0.123500D+04  0.410800D-02
  0.280800D+03  0.210870D-01
  0.792700D+02  0.818530D-01
  0.255900D+02  0.234817D+00
  0.899700D+01  0.434401D+00
  0.331900D+01  0.346129D+00
  0.905900D+00  0.393780D-01
  0.364300D+00 -0.898300D-02
  0.128500D+00  0.238500D-02
   s    10 1.00
  0.823600D+04 -0.113000D-03
  0.123500D+04 -0.878000D-03
  0.280800D+03 -0.454000D-02
  0.792700D+02 -0.181330D-01
  0.255900D+02 -0.557600D-01
  0.899700D+01 -0.126895D+00
  0.331900D+01 -0.170352D+00
  0.905900D+00  0.140382D+00
  0.364300D+00  0.598684D+00
  0.128500D+00  0.395389D+00
   s     1 1.00
  0.905900D+00  0.100000D+01
   s     1 1.00
  0.364300D+00  0.100000D+01
   p     5 1.00
  0.187100D+02  0.140310D-01
  0.413300D+01  0.868660D-01
  0.120000D+01  0.290216D+00
  0.382700D+00  0.501008D+00
  0.120900D+00  0.343406D+00
   p     1 1.00
  0.382700D+00  0.100000D+01
   p     1 1.00
  0.120900D+00  0.100000D+01
   d     1 1.00
  0.109700D+01  0.100000D+01
   d     1 1.00
  0.318000D+00  0.100000D+01
   f     1 1.00
  0.761000D+00  0.100000D+01
  
  6  0
   s    10 1.00
  0.823600D+04  0.531000D-03
  0.123500D+04  0.410800D-02
  0.280800D+03  0.210870D-01
  0.792700D+02  0.818530D-01
  0.255900D+02  0.234817D+00
  0.899700D+01  0.434401D+00
  0.331900D+01  0.346129D+00
  0.905900D+00  0.393780D-01
  0.364300D+00 -0.898300D-02
  0.128500D+00  0.238500D-02
   s    10 1.00
  0.823600D+04 -0.113000D-03
  0.123500D+04 -0.878000D-03
  0.280800D+03 -0.454000D-02
  0.792700D+02 -0.181330D-01
  0.255900D+02 -0.557600D-01
  0.899700D+01 -0.126895D+00
  0.331900D+01 -0.170352D+00
  0.905900D+00  0.140382D+00
  0.364300D+00  0.598684D+00
  0.128500D+00  0.395389D+00
   s     1 1.00
  0.905900D+00  0.100000D+01
   s     1 1.00
  0.364300D+00  0.100000D+01
   p     5 1.00
  0.187100D+02  0.140310D-01
  0.413300D+01  0.868660D-01
  0.120000D+01  0.290216D+00
  0.382700D+00  0.501008D+00
  0.120900D+00  0.343406D+00
   p     1 1.00
  0.382700D+00  0.100000D+01
   p     1 1.00
  0.120900D+00  0.100000D+01
   d     1 1.00
  0.109700D+01  0.100000D+01
   d     1 1.00
  0.318000D+00  0.100000D+01
   f     1 1.00
  0.761000D+00  0.100000D+01
  
  7  0
   s    10 1.00
  0.823600D+04  0.531000D-03
  0.123500D+04  0.410800D-02
  0.280800D+03  0.210870D-01
  0.792700D+02  0.818530D-01
  0.255900D+02  0.234817D+00
  0.899700D+01  0.434401D+00
  0.331900D+01  0.346129D+00
  0.905900D+00  0.393780D-01
  0.364300D+00 -0.898300D-02
  0.128500D+00  0.238500D-02
   s    10 1.00
  0.823600D+04 -0.113000D-03
  0.123500D+04 -0.878000D-03
  0.280800D+03 -0.454000D-02
  0.792700D+02 -0.181330D-01
  0.255900D+02 -0.557600D-01
  0.899700D+01 -0.126895D+00
  0.331900D+01 -0.170352D+00
  0.905900D+00  0.140382D+00
  0.364300D+00  0.598684D+00
  0.128500D+00  0.395389D+00
   s     1 1.00
  0.905900D+00  0.100000D+01
   s     1 1.00
  0.364300D+00  0.100000D+01
   p     5 1.00
  0.187100D+02  0.140310D-01
  0.413300D+01  0.868660D-01
  0.120000D+01  0.290216D+00
  0.382700D+00  0.501008D+00
  0.120900D+00  0.343406D+00
   p     1 1.00
  0.382700D+00  0.100000D+01
   p     1 1.00
  0.120900D+00  0.100000D+01
   d     1 1.00
  0.109700D+01  0.100000D+01
   d     1 1.00
  0.318000D+00  0.100000D+01
   f     1 1.00
  0.761000D+00  0.100000D+01
  
  8  0
   s     4 1.00
  0.130100D+02  0.196850D-01
  0.196200D+01  0.137977D+00
  0.444600D+00  0.478148D+00
  0.122000D+00  0.501240D+00
   s     1 1.00
  0.122000D+00  0.100000D+01
   p     1 1.00
  0.727000D+00  0.100000D+01
  
  9  0
   s     4 1.00
  0.130100D+02  0.196850D-01
  0.196200D+01  0.137977D+00
  0.444600D+00  0.478148D+00
  0.122000D+00  0.501240D+00
   s     1 1.00
  0.122000D+00  0.100000D+01
   p     1 1.00
  0.727000D+00  0.100000D+01
  
 10  0
   s     4 1.00
  0.130100D+02  0.196850D-01
  0.196200D+01  0.137977D+00
  0.444600D+00  0.478148D+00
  0.122000D+00  0.501240D+00
   s     1 1.00
  0.122000D+00  0.100000D+01
   p     1 1.00
  0.727000D+00  0.100000D+01
  
 11  0
   s     4 1.00
  0.130100D+02  0.196850D-01
  0.196200D+01  0.137977D+00
  0.444600D+00  0.478148D+00
  0.122000D+00  0.501240D+00
   s     1 1.00
  0.122000D+00  0.100000D+01
   p     1 1.00
  0.727000D+00  0.100000D+01
  
 12  0
   s     4 1.00
  0.130100D+02  0.196850D-01
  0.196200D+01  0.137977D+00
  0.444600D+00  0.478148D+00
  0.122000D+00  0.501240D+00
   s     1 1.00
  0.122000D+00  0.100000D+01
   p     1 1.00
  0.727000D+00  0.100000D+01
  
 13  0
   s     4 1.00
  0.130100D+02  0.196850D-01
  0.196200D+01  0.137977D+00
  0.444600D+00  0.478148D+00
  0.122000D+00  0.501240D+00
   s     1 1.00
  0.122000D+00  0.100000D+01
   p     1 1.00
  0.727000D+00  0.100000D+01
  
 14  0
   s     4 1.00
  0.130100D+02  0.196850D-01
  0.196200D+01  0.137977D+00
  0.444600D+00  0.478148D+00
  0.122000D+00  0.501240D+00
   s     1 1.00
  0.122000D+00  0.100000D+01
   p     1 1.00
  0.727000D+00  0.100000D+01
  
[MO]
 Sym= __1_a__
 Ene=  0.000000000000000E+000
 Spin= Alpha
 Occup=    2.00000000000000     
                     1 -1.532062636711850E-005
                     2  0.998540069730054     
                     3  5.696819499502280E-003
                     4  1.596805091357730E-003
                     5  2.627445859240200E-003
                     6 -1.760406922111720E-011
                     7 -6.066002936559380E-009
                     8  5.138219247781900E-003
                     9  9.113201736335189E-012
                    10  1.193368179746820E-008
                    11 -1.072103929899370E-004
                    12  4.022501582623300E-012
                    13 -4.342031157771320E-008
                    14 -6.973941196129330E-004
                    15  2.671117286566265E-004
                    16 -9.366049249010890E-013
                    17 -2.282356243769760E-010
                    18  1.659363877516966E-005
                    19 -6.295864134247480E-013
                    20  8.314096026297984E-005
                    21 -2.472514497002900E-012
                    22 -2.249588234934660E-008
                    23  4.811439929481240E-004
                    24  3.846469698060360E-013
                    25 -1.160650643208640E-004
                    26  6.635329210487338E-013
                    27 -8.385465843696679E-009
                    28  1.177016634572884E-005
                    29 -1.014876674229600E-012
                    30  7.159066624102751E-013
                    31 -2.513236424456510E-010
                    32 -3.193139966608460E-004
                    33  2.298599109439750E-003
                    34  1.321511584133290E-004
                    35 -1.883704959212830E-004
                    36 -5.099991282808340E-012
                    37  2.528906307904740E-008
                    38 -6.030514625839800E-003
                    39  3.713508491574410E-012
                    40 -1.054144583297100E-007
                    41  1.364800270989170E-004
                    42 -4.398088755852150E-013
                    43 -1.591337405808940E-007
                    44  4.827020871453640E-003
                    45  3.075547698509908E-004
                    46  8.175573048689080E-013
                    47  5.492104055698890E-009
                    48  1.203120932680404E-004
                    49  9.184433189028270E-013
                    50  1.942169324146515E-004
                    51 -9.932671523499660E-013
                    52 -1.636185647719390E-007
                    53 -3.376926388982920E-004
                    54  9.753305737020791E-013
                    55 -8.685214926960402E-005
                    56  4.837041149462025E-012
                    57  7.399692442222939E-009
                    58  5.481620742483740E-005
                    59 -3.464168379035520E-013
                    60  1.016581526108162E-012
                    61  4.445503068546975E-009
                    62 -2.335160739997690E-004
                    63 -1.556486294534170E-003
                    64  5.108770197640310E-005
                    65  6.561675689264730E-004
                    66  8.091082352179240E-012
                    67 -7.385605450435990E-004
                    68  7.877957740169600E-004
                    69 -4.671112132447820E-012
                    70 -1.441446431343250E-005
                    71  5.688867589614940E-004
                    72 -2.649177950696540E-012
                    73 -8.025574227867680E-004
                    74 -2.508356515237550E-004
                    75  8.135237077556759E-005
                    76 -1.389587041328140E-013
                    77 -3.857206201173800E-006
                    78  3.181861619494320E-005
                    79 -7.897953422759320E-013
                    80  2.656998392711591E-005
                    81 -9.298871416781700E-013
                    82  1.084888087367340E-004
                    83 -5.637589201215700E-006
                    84  2.523628710981920E-012
                    85 -9.284938498992954E-005
                    86 -7.664195311816137E-013
                    87 -2.602011201094952E-005
                    88  2.056475015420100E-005
                    89  1.375756208430380E-012
                    90 -1.283575888638551E-012
                    91  1.220786036816185E-005
                    92 -2.335079253367200E-004
                    93 -1.556437651714210E-003
                    94  5.122712015755790E-005
                    95  6.557204136017150E-004
                    96  2.187964208711160E-012
                    97  7.385954639770850E-004
                    98  7.879039915439540E-004
                    99 -1.151489099941550E-013
                   100  1.422281718494080E-005
                   101  5.682238059396930E-004
                   102  5.036158286886730E-012
                   103  8.020541363579710E-004
                   104 -2.510622025579180E-004
                   105  8.132384178483530E-005
                   106 -1.843128929754970E-012
                   107  3.869317970349090E-006
                   108  3.182168353365260E-005
                   109 -1.189651357774280E-012
                   110  2.615465869131254E-005
                   111  2.200276284910070E-012
                   112 -1.085260064251760E-004
                   113 -5.751001012391520E-006
                   114  4.246838015239970E-012
                   115 -9.279446350250762E-005
                   116  8.805243653649495E-013
                   117  2.600136502547265E-005
                   118  2.056793964584540E-005
                   119 -3.848272812230010E-013
                   120 -1.861621904547473E-012
                   121 -1.220702548026396E-005
                   122 -1.645580828688190E-004
                   123 -1.349294024680650E-004
                   124  1.080223010326590E-004
                   125  1.908383552738520E-004
                   126  3.390498328540610E-012
                   127  2.504151307168170E-005
                   128 -6.538709102113340E-004
                   129 -1.359992653967080E-012
                   130  7.306859126766670E-005
                   131  3.460522824969520E-004
                   132  3.070433549374650E-012
                   133 -1.926275214758310E-004
                   134  7.666777932900630E-004
                   135 -1.878999561987583E-005
                   136  3.104690386994510E-012
                   137  3.946706380165000E-007
                   138 -2.197302370546100E-006
                   139 -2.028729176503050E-016
                   140 -2.017915750163392E-004
                   141 -1.479115372296880E-012
                   142  1.446703420082260E-004
                   143  1.916398955430090E-005
                   144  2.725063297108620E-013
                   145 -3.974556476132756E-005
                   146  1.838699816618949E-012
                   147  3.866558156316802E-006
                   148 -1.027736674165184E-005
                   149 -6.919634133924760E-013
                   150 -8.997430722134133E-013
                   151 -4.443039489107734E-006
                   152 -1.648774384194600E-004
                   153 -1.360622969900350E-004
                   154  1.077149817922940E-004
                   155  1.927932345589360E-004
                   156  2.353524241982250E-012
                   157 -2.510593455462220E-005
                   158 -6.537850032178999E-004
                   159 -6.206450341579380E-012
                   160 -7.293383427548169E-005
                   161  3.454823626861630E-004
                   162 -3.283068515485930E-012
                   163  1.931823445029570E-004
                   164  7.664676105561230E-004
                   165 -1.874859445980142E-005
                   166 -5.794060175314070E-013
                   167 -3.850829304906650E-007
                   168 -2.218475469303660E-006
                   169  1.812634103669810E-013
                   170 -2.015596182908911E-004
                   171 -3.184403621671710E-013
                   172 -1.447197152789100E-004
                   173  1.921312345270626E-005
                   174 -3.251691344206440E-012
                   175 -3.968036694530099E-005
                   176  1.989382606302329E-012
                   177 -3.836428045359668E-006
                   178 -1.029691544024612E-005
                   179 -1.644118134900930E-012
                   180 -1.601153461138744E-013
                   181  4.433287452556541E-006
                   182 -1.239177148683040E-004
                   183 -3.302048352664860E-004
                   184  4.064242991066660E-005
                   185  1.487197238144840E-004
                   186  1.449937746164800E-011
                   187 -1.468729235871140E-008
                   188 -5.070337385091300E-005
                   189 -8.238480863644660E-012
                   190  6.483101249735690E-010
                   191  3.575245749784970E-005
                   192 -5.916699376603100E-012
                   193  1.757663674309840E-007
                   194 -2.307089915365400E-005
                   195  1.721980705709608E-005
                   196 -1.217151903500960E-012
                   197  3.480862410752140E-009
                   198  7.609368891212860E-006
                   199  1.031703918166500E-012
                   200  5.229579003720004E-005
                   201  1.819095862730600E-012
                   202  1.138864142767760E-008
                   203  5.994298301777860E-005
                   204  8.344660594844190E-014
                   205 -8.180761392514381E-006
                   206 -1.767274191377486E-013
                   207 -8.268344559922476E-009
                   208 -1.560302590756240E-006
                   209 -1.337370640658620E-012
                   210 -1.131231716808091E-012
                   211  4.228161805298546E-010
                   212  1.513227183312150E-003
                   213 -1.060585288841940E-003
                   214  1.623149672508730E-012
                   215  3.673047821233580E-004
                   216  2.927411775737910E-004
                   217  1.513229229810080E-003
                   218 -1.060579130787500E-003
                   219  1.117698066725460E-013
                   220 -3.673139275625520E-004
                   221  2.927443167924390E-004
                   222 -4.852775747296480E-004
                   223 -3.427785105570160E-004
                   224 -6.858962994888170E-013
                   225 -9.282699316453880E-006
                   226 -3.656111570121090E-005
                   227 -4.853444563932320E-004
                   228 -3.425577434615130E-004
                   229 -2.320451780923800E-012
                   230  9.261526033174359E-006
                   231 -3.658821062122400E-005
                   232 -1.811482461528330E-004
                   233 -4.443395111663380E-004
                   234 -8.212360720554410E-013
                   235 -2.205486353286260E-006
                   236  9.526059264359910E-007
                   237 -1.812679004771170E-004
                   238 -4.443871944758310E-004
                   239  4.751443312862010E-012
                   240  2.265411052623820E-006
                   241  9.791696096538089E-007
                   242  5.105557184070060E-005
                   243 -1.015103317322180E-004
                   244 -7.708208597805600E-014
                   245 -8.684183871535580E-010
                   246  1.520180296684180E-005
 Sym= __2_a__
 Ene=  0.000000000000000E+000
 Spin= Alpha
 Occup=    2.00000000000000     
                     1 -5.591031577030440E-005
                     2 -2.713767456071190E-004
                     3  2.717551936844530E-003
                     4  1.315195194929450E-004
                     5  1.259376176305640E-003
                     6 -1.778223722212180E-012
                     7  4.703273585140210E-009
                     8  3.071329276045090E-003
                     9  3.093958907734070E-013
                    10 -3.505370657197570E-009
                    11 -8.053607250009870E-005
                    12 -1.174353806321610E-012
                    13  3.989058968393140E-009
                    14 -4.782680873515970E-004
                    15  4.163692388267400E-005
                    16  6.311572141872210E-013
                    17  6.374701075394500E-010
                    18  6.511185008519581E-005
                    19  1.723900020423840E-013
                    20 -1.631359921798606E-004
                    21 -6.329804809383190E-012
                    22 -9.871529216953749E-010
                    23 -2.513052925580880E-004
                    24  4.649387152347650E-012
                    25  1.824894698537114E-004
                    26 -7.981027789646960E-013
                    27 -1.919209994312499E-010
                    28 -8.320669790197380E-006
                    29 -4.394049132646930E-013
                    30  7.240746434313538E-013
                    31  8.131896295951893E-010
                    32   1.00104825753805     
                    33  9.340817791022841E-003
                    34  2.657936251217220E-003
                    35 -7.878520464274530E-003
                    36 -5.800378280078090E-012
                    37 -5.138987450587850E-009
                    38 -4.214481295636220E-003
                    39 -1.541172014477330E-012
                    40  5.957179433061109E-010
                    41  9.891669840567140E-004
                    42 -3.971238302407750E-012
                    43 -6.439726402670840E-008
                    44  4.418425860411490E-003
                    45  4.781095225645318E-004
                    46  3.927184676260950E-012
                    47 -2.692148964199660E-009
                    48 -4.217006920615880E-004
                    49 -3.766062808645560E-013
                    50  5.241406373095868E-004
                    51 -1.189784313137690E-011
                    52  6.539254440603420E-009
                    53  9.101734573605980E-004
                    54 -8.168154777449910E-012
                    55  3.826832763526980E-004
                    56 -9.876324457653358E-013
                    57 -9.072369325130480E-010
                    58 -1.975860292470866E-004
                    59  2.888909241287170E-012
                    60 -4.716486590611651E-013
                    61  1.473538912806639E-009
                    62  7.514295041947940E-003
                    63 -2.083923181354180E-003
                    64 -2.737683940798040E-004
                    65  3.017352129037070E-003
                    66 -2.867867757588610E-014
                    67  4.916785225036850E-005
                    68  4.229518036229670E-005
                    69 -5.312325776393740E-012
                    70  6.120677248872680E-004
                    71  3.494137811589650E-005
                    72  1.675593783882470E-011
                    73 -2.077195922819170E-003
                    74  1.054404216785300E-004
                    75 -1.267253408663554E-005
                    76 -5.625737209978600E-012
                    77  1.231005870532330E-005
                    78  3.068588795111880E-005
                    79 -4.088922386115080E-012
                    80  7.509748911773378E-004
                    81  8.599861178805500E-012
                    82 -3.970481463154850E-004
                    83 -2.172838108904360E-005
                    84  9.455708806113340E-012
                    85  7.386333136370153E-005
                    86 -3.257256735751384E-013
                    87  4.517715571645106E-005
                    88 -1.285399770473098E-004
                    89 -3.548710597723050E-012
                    90 -2.102775828947478E-012
                    91  4.889715862675632E-005
                    92  7.514268514328910E-003
                    93 -2.084007931548630E-003
                    94 -2.738086013849920E-004
                    95  3.017549275449100E-003
                    96 -1.147780271583680E-011
                    97 -4.916869516309260E-005
                    98  4.227418112399780E-005
                    99  1.277982469841490E-011
                   100 -6.120690811928260E-004
                   101  3.506231785387270E-005
                   102  6.683747909497680E-012
                   103  2.077311406909220E-003
                   104  1.052905775088580E-004
                   105 -1.265812694551857E-005
                   106  2.292234352432950E-012
                   107 -1.231608896390640E-005
                   108  3.068441201286980E-005
                   109 -2.311074418935500E-012
                   110  7.510257593080918E-004
                   111 -7.479988035838730E-012
                   112  3.970949843740340E-004
                   113 -2.171113573768720E-005
                   114 -6.676186984222080E-012
                   115  7.385130537730642E-005
                   116 -4.851133391293416E-013
                   117 -4.517412013362799E-005
                   118 -1.285375694384594E-004
                   119  2.499489428115210E-012
                   120  1.148306555781807E-012
                   121 -4.889562845882250E-005
                   122 -2.201672551916660E-004
                   123 -7.295282808644360E-004
                   124  2.261215578558190E-004
                   125 -1.146940300214640E-004
                   126  1.270649001636500E-011
                   127 -1.238394430500990E-005
                   128 -2.927526193950150E-004
                   129 -1.052023753765250E-011
                   130 -2.498366287907440E-005
                   131  5.392889641618650E-004
                   132 -2.917156657246620E-011
                   133  3.302803156460200E-004
                   134  7.516530755487790E-004
                   135 -1.346385993170126E-005
                   136  2.202527688887640E-012
                   137  5.266188641364830E-005
                   138  1.462046386816994E-005
                   139 -2.804330244061380E-012
                   140 -2.877759104116164E-004
                   141 -4.056511869881760E-012
                   142 -2.095009797291340E-004
                   143 -1.307099145707612E-005
                   144 -5.046181803756240E-012
                   145  1.504374512311184E-006
                   146 -4.429299432094776E-012
                   147 -4.277545913382859E-005
                   148 -4.041420452878140E-005
                   149 -2.312066202689630E-012
                   150 -5.471678775843505E-013
                   151 -5.389574056958171E-006
                   152 -2.198895972778150E-004
                   153 -7.286079442509870E-004
                   154  2.261752877230950E-004
                   155 -1.156355221163310E-004
                   156 -3.911441897504440E-012
                   157  1.237714994551390E-005
                   158 -2.927563274739110E-004
                   159  2.647513534786130E-012
                   160  2.501278674306010E-005