[Molden Format]
[Atoms] AU
  N     1    7     0.0000000000    0.0000000000   -4.2907334100        
  C     2    6     0.0000000000    0.0000000000   -1.7772236300        
  C     3    6     0.0000000000   -2.3389203600   -0.4111016300        
  C     4    6     0.0000000000    2.3389203600   -0.4111016300        
  C     5    6     0.0000000000   -2.2998668500    2.1639215300        
  C     6    6     0.0000000000    2.2998668500    2.1639215300        
  C     7    6     0.0000000000    0.0000000000    3.4755251800        
  H     8    1     0.0000000000   -1.9299607200   -5.4813572000        
  H     9    1     0.0000000000    1.9299607200   -5.4813572000        
  H    10    1     0.0000000000   -4.0745407300   -1.4447408500        
  H    11    1     0.0000000000    4.0745407300   -1.4447408500        
  H    12    1     0.0000000000   -4.0420632100    3.1963889500        
  H    13    1     0.0000000000    4.0420632100    3.1963889500        
  H    14    1     0.0000000000    0.0000000000    5.5020335600        
[5D]
[7F]
[GTO]
  1  0
   s    12 1.00
  0.114200D+05  0.172695D-04
  0.171200D+04  0.134411D-03
  0.389300D+03  0.694561D-03
  0.110000D+03  0.278531D-02
  0.355700D+02  0.863457D-02
  0.125400D+02  0.199805D-01
  0.464400D+01  0.262908D-01
  0.129300D+01 -0.243845D-01
  0.511800D+00 -0.924934D-01
  0.178700D+00 -0.339683D+00
  0.246240D-01  0.345111D+00
  0.112530D-01  0.752750D+00
   s    10 1.00
  0.114200D+05  0.523000D-03
  0.171200D+04  0.404500D-02
  0.389300D+03  0.207750D-01
  0.110000D+03  0.807269D-01
  0.355700D+02  0.233074D+00
  0.125400D+02  0.433501D+00
  0.464400D+01  0.347472D+00
  0.129300D+01  0.412620D-01
  0.511800D+00 -0.850799D-02
  0.178700D+00  0.238400D-02
   s    10 1.00
  0.114200D+05 -0.115000D-03
  0.171200D+04 -0.895000D-03
  0.389300D+03 -0.462400D-02
  0.110000D+03 -0.185280D-01
  0.355700D+02 -0.573390D-01
  0.125400D+02 -0.132076D+00
  0.464400D+01 -0.172510D+00
  0.129300D+01  0.151814D+00
  0.511800D+00  0.599944D+00
  0.178700D+00  0.387462D+00
   s     1 1.00
  0.129300D+01  0.100000D+01
   s     1 1.00
  0.178700D+00  0.100000D+01
   p     5 1.00
  0.266300D+02  0.146700D-01
  0.594800D+01  0.917640D-01
  0.174200D+01  0.298683D+00
  0.555000D+00  0.498487D+00
  0.172500D+00  0.337023D+00
   p     1 1.00
  0.174200D+01  0.100000D+01
   p     1 1.00
  0.555000D+00  0.100000D+01
   d     1 1.00
  0.165400D+01  0.100000D+01
   d     1 1.00
  0.469000D+00  0.100000D+01
   f     1 1.00
  0.109300D+01  0.100000D+01
  
  2  0
   s    10 1.00
  0.823600D+04  0.531000D-03
  0.123500D+04  0.410800D-02
  0.280800D+03  0.210870D-01
  0.792700D+02  0.818530D-01
  0.255900D+02  0.234817D+00
  0.899700D+01  0.434401D+00
  0.331900D+01  0.346129D+00
  0.905900D+00  0.393780D-01
  0.364300D+00 -0.898300D-02
  0.128500D+00  0.238500D-02
   s    10 1.00
  0.823600D+04 -0.113000D-03
  0.123500D+04 -0.878000D-03
  0.280800D+03 -0.454000D-02
  0.792700D+02 -0.181330D-01
  0.255900D+02 -0.557600D-01
  0.899700D+01 -0.126895D+00
  0.331900D+01 -0.170352D+00
  0.905900D+00  0.140382D+00
  0.364300D+00  0.598684D+00
  0.128500D+00  0.395389D+00
   s     1 1.00
  0.905900D+00  0.100000D+01
   s     1 1.00
  0.364300D+00  0.100000D+01
   p     5 1.00
  0.187100D+02  0.140310D-01
  0.413300D+01  0.868660D-01
  0.120000D+01  0.290216D+00
  0.382700D+00  0.501008D+00
  0.120900D+00  0.343406D+00
   p     1 1.00
  0.382700D+00  0.100000D+01
   p     1 1.00
  0.120900D+00  0.100000D+01
   d     1 1.00
  0.109700D+01  0.100000D+01
   d     1 1.00
  0.318000D+00  0.100000D+01
   f     1 1.00
  0.761000D+00  0.100000D+01
  
  3  0
   s    10 1.00
  0.823600D+04  0.531000D-03
  0.123500D+04  0.410800D-02
  0.280800D+03  0.210870D-01
  0.792700D+02  0.818530D-01
  0.255900D+02  0.234817D+00
  0.899700D+01  0.434401D+00
  0.331900D+01  0.346129D+00
  0.905900D+00  0.393780D-01
  0.364300D+00 -0.898300D-02
  0.128500D+00  0.238500D-02
   s    10 1.00
  0.823600D+04 -0.113000D-03
  0.123500D+04 -0.878000D-03
  0.280800D+03 -0.454000D-02
  0.792700D+02 -0.181330D-01
  0.255900D+02 -0.557600D-01
  0.899700D+01 -0.126895D+00
  0.331900D+01 -0.170352D+00
  0.905900D+00  0.140382D+00
  0.364300D+00  0.598684D+00
  0.128500D+00  0.395389D+00
   s     1 1.00
  0.905900D+00  0.100000D+01
   s     1 1.00
  0.364300D+00  0.100000D+01
   p     5 1.00
  0.187100D+02  0.140310D-01
  0.413300D+01  0.868660D-01
  0.120000D+01  0.290216D+00
  0.382700D+00  0.501008D+00
  0.120900D+00  0.343406D+00
   p     1 1.00
  0.382700D+00  0.100000D+01
   p     1 1.00
  0.120900D+00  0.100000D+01
   d     1 1.00
  0.109700D+01  0.100000D+01
   d     1 1.00
  0.318000D+00  0.100000D+01
   f     1 1.00
  0.761000D+00  0.100000D+01
  
  4  0
   s    10 1.00
  0.823600D+04  0.531000D-03
  0.123500D+04  0.410800D-02
  0.280800D+03  0.210870D-01
  0.792700D+02  0.818530D-01
  0.255900D+02  0.234817D+00
  0.899700D+01  0.434401D+00
  0.331900D+01  0.346129D+00
  0.905900D+00  0.393780D-01
  0.364300D+00 -0.898300D-02
  0.128500D+00  0.238500D-02
   s    10 1.00
  0.823600D+04 -0.113000D-03
  0.123500D+04 -0.878000D-03
  0.280800D+03 -0.454000D-02
  0.792700D+02 -0.181330D-01
  0.255900D+02 -0.557600D-01
  0.899700D+01 -0.126895D+00
  0.331900D+01 -0.170352D+00
  0.905900D+00  0.140382D+00
  0.364300D+00  0.598684D+00
  0.128500D+00  0.395389D+00
   s     1 1.00
  0.905900D+00  0.100000D+01
   s     1 1.00
  0.364300D+00  0.100000D+01
   p     5 1.00
  0.187100D+02  0.140310D-01
  0.413300D+01  0.868660D-01
  0.120000D+01  0.290216D+00
  0.382700D+00  0.501008D+00
  0.120900D+00  0.343406D+00
   p     1 1.00
  0.382700D+00  0.100000D+01
   p     1 1.00
  0.120900D+00  0.100000D+01
   d     1 1.00
  0.109700D+01  0.100000D+01
   d     1 1.00
  0.318000D+00  0.100000D+01
   f     1 1.00
  0.761000D+00  0.100000D+01
  
  5  0
   s    10 1.00
  0.823600D+04  0.531000D-03
  0.123500D+04  0.410800D-02
  0.280800D+03  0.210870D-01
  0.792700D+02  0.818530D-01
  0.255900D+02  0.234817D+00
  0.899700D+01  0.434401D+00
  0.331900D+01  0.346129D+00
  0.905900D+00  0.393780D-01
  0.364300D+00 -0.898300D-02
  0.128500D+00  0.238500D-02
   s    10 1.00
  0.823600D+04 -0.113000D-03
  0.123500D+04 -0.878000D-03
  0.280800D+03 -0.454000D-02
  0.792700D+02 -0.181330D-01
  0.255900D+02 -0.557600D-01
  0.899700D+01 -0.126895D+00
  0.331900D+01 -0.170352D+00
  0.905900D+00  0.140382D+00
  0.364300D+00  0.598684D+00
  0.128500D+00  0.395389D+00
   s     1 1.00
  0.905900D+00  0.100000D+01
   s     1 1.00
  0.364300D+00  0.100000D+01
   p     5 1.00
  0.187100D+02  0.140310D-01
  0.413300D+01  0.868660D-01
  0.120000D+01  0.290216D+00
  0.382700D+00  0.501008D+00
  0.120900D+00  0.343406D+00
   p     1 1.00
  0.382700D+00  0.100000D+01
   p     1 1.00
  0.120900D+00  0.100000D+01
   d     1 1.00
  0.109700D+01  0.100000D+01
   d     1 1.00
  0.318000D+00  0.100000D+01
   f     1 1.00
  0.761000D+00  0.100000D+01
  
  6  0
   s    10 1.00
  0.823600D+04  0.531000D-03
  0.123500D+04  0.410800D-02
  0.280800D+03  0.210870D-01
  0.792700D+02  0.818530D-01
  0.255900D+02  0.234817D+00
  0.899700D+01  0.434401D+00
  0.331900D+01  0.346129D+00
  0.905900D+00  0.393780D-01
  0.364300D+00 -0.898300D-02
  0.128500D+00  0.238500D-02
   s    10 1.00
  0.823600D+04 -0.113000D-03
  0.123500D+04 -0.878000D-03
  0.280800D+03 -0.454000D-02
  0.792700D+02 -0.181330D-01
  0.255900D+02 -0.557600D-01
  0.899700D+01 -0.126895D+00
  0.331900D+01 -0.170352D+00
  0.905900D+00  0.140382D+00
  0.364300D+00  0.598684D+00
  0.128500D+00  0.395389D+00
   s     1 1.00
  0.905900D+00  0.100000D+01
   s     1 1.00
  0.364300D+00  0.100000D+01
   p     5 1.00
  0.187100D+02  0.140310D-01
  0.413300D+01  0.868660D-01
  0.120000D+01  0.290216D+00
  0.382700D+00  0.501008D+00
  0.120900D+00  0.343406D+00
   p     1 1.00
  0.382700D+00  0.100000D+01
   p     1 1.00
  0.120900D+00  0.100000D+01
   d     1 1.00
  0.109700D+01  0.100000D+01
   d     1 1.00
  0.318000D+00  0.100000D+01
   f     1 1.00
  0.761000D+00  0.100000D+01
  
  7  0
   s    10 1.00
  0.823600D+04  0.531000D-03
  0.123500D+04  0.410800D-02
  0.280800D+03  0.210870D-01
  0.792700D+02  0.818530D-01
  0.255900D+02  0.234817D+00
  0.899700D+01  0.434401D+00
  0.331900D+01  0.346129D+00
  0.905900D+00  0.393780D-01
  0.364300D+00 -0.898300D-02
  0.128500D+00  0.238500D-02
   s    10 1.00
  0.823600D+04 -0.113000D-03
  0.123500D+04 -0.878000D-03
  0.280800D+03 -0.454000D-02
  0.792700D+02 -0.181330D-01
  0.255900D+02 -0.557600D-01
  0.899700D+01 -0.126895D+00
  0.331900D+01 -0.170352D+00
  0.905900D+00  0.140382D+00
  0.364300D+00  0.598684D+00
  0.128500D+00  0.395389D+00
   s     1 1.00
  0.905900D+00  0.100000D+01
   s     1 1.00
  0.364300D+00  0.100000D+01
   p     5 1.00
  0.187100D+02  0.140310D-01
  0.413300D+01  0.868660D-01
  0.120000D+01  0.290216D+00
  0.382700D+00  0.501008D+00
  0.120900D+00  0.343406D+00
   p     1 1.00
  0.382700D+00  0.100000D+01
   p     1 1.00
  0.120900D+00  0.100000D+01
   d     1 1.00
  0.109700D+01  0.100000D+01
   d     1 1.00
  0.318000D+00  0.100000D+01
   f     1 1.00
  0.761000D+00  0.100000D+01
  
  8  0
   s     4 1.00
  0.130100D+02  0.196850D-01
  0.196200D+01  0.137977D+00
  0.444600D+00  0.478148D+00
  0.122000D+00  0.501240D+00
   s     1 1.00
  0.122000D+00  0.100000D+01
   p     1 1.00
  0.727000D+00  0.100000D+01
  
  9  0
   s     4 1.00
  0.130100D+02  0.196850D-01
  0.196200D+01  0.137977D+00
  0.444600D+00  0.478148D+00
  0.122000D+00  0.501240D+00
   s     1 1.00
  0.122000D+00  0.100000D+01
   p     1 1.00
  0.727000D+00  0.100000D+01
  
 10  0
   s     4 1.00
  0.130100D+02  0.196850D-01
  0.196200D+01  0.137977D+00
  0.444600D+00  0.478148D+00
  0.122000D+00  0.501240D+00
   s     1 1.00
  0.122000D+00  0.100000D+01
   p     1 1.00
  0.727000D+00  0.100000D+01
  
 11  0
   s     4 1.00
  0.130100D+02  0.196850D-01
  0.196200D+01  0.137977D+00
  0.444600D+00  0.478148D+00
  0.122000D+00  0.501240D+00
   s     1 1.00
  0.122000D+00  0.100000D+01
   p     1 1.00
  0.727000D+00  0.100000D+01
  
 12  0
   s     4 1.00
  0.130100D+02  0.196850D-01
  0.196200D+01  0.137977D+00
  0.444600D+00  0.478148D+00
  0.122000D+00  0.501240D+00
   s     1 1.00
  0.122000D+00  0.100000D+01
   p     1 1.00
  0.727000D+00  0.100000D+01
  
 13  0
   s     4 1.00
  0.130100D+02  0.196850D-01
  0.196200D+01  0.137977D+00
  0.444600D+00  0.478148D+00
  0.122000D+00  0.501240D+00
   s     1 1.00
  0.122000D+00  0.100000D+01
   p     1 1.00
  0.727000D+00  0.100000D+01
  
 14  0
   s     4 1.00
  0.130100D+02  0.196850D-01
  0.196200D+01  0.137977D+00
  0.444600D+00  0.478148D+00
  0.122000D+00  0.501240D+00
   s     1 1.00
  0.122000D+00  0.100000D+01
   p     1 1.00
  0.727000D+00  0.100000D+01
  
[MO]
 Sym= __1_A__
 Ene=   1.00000000000000     
 Spin= Alpha
 Occup=    1.00000000000000     
                     1 -1.532062636711851E-005
                     2  0.998540069730054     
                     3  5.696819499502279E-003
                     4  1.596805091357729E-003
                     5  2.627445859240202E-003
                     6 -1.760406922111716E-011
                     7 -6.066002936559378E-009
                     8  5.138219247781900E-003
                     9  9.113201736335193E-012
                    10  1.193368179746816E-008
                    11 -1.072103929899365E-004
                    12  4.022501582623297E-012
                    13 -4.342031157771325E-008
                    14 -6.973941196129333E-004
                    15  2.671117286566265E-004
                    16 -9.366049249010894E-013
                    17 -2.282356243769760E-010
                    18  1.659363877516966E-005
                    19 -6.295864134247484E-013
                    20  8.314096026297987E-005
                    21 -2.472514497002901E-012
                    22 -2.249588234934660E-008
                    23  4.811439929481240E-004
                    24  3.846469698060364E-013
                    25 -1.160650643208639E-004
                    26  6.635329210487344E-013
                    27 -8.385465843696666E-009
                    28  1.177016634572883E-005
                    29 -1.014876674229603E-012
                    30  7.159066624102755E-013
                    31 -2.513236424456511E-010
                    32 -3.193139966608459E-004
                    33  2.298599109439745E-003
                    34  1.321511584133290E-004
                    35 -1.883704959212829E-004
                    36 -5.099991282808336E-012
                    37  2.528906307904741E-008
                    38 -6.030514625839800E-003
                    39  3.713508491574409E-012
                    40 -1.054144583297104E-007
                    41  1.364800270989172E-004
                    42 -4.398088755852148E-013
                    43 -1.591337405808937E-007
                    44  4.827020871453635E-003
                    45  3.075547698509910E-004
                    46  8.175573048689081E-013
                    47  5.492104055698885E-009
                    48  1.203120932680404E-004
                    49  9.184433189028266E-013
                    50  1.942169324146513E-004
                    51 -9.932671523499662E-013
                    52 -1.636185647719388E-007
                    53 -3.376926388982926E-004
                    54  9.753305737020795E-013
                    55 -8.685214926960402E-005
                    56  4.837041149462024E-012
                    57  7.399692442222921E-009
                    58  5.481620742483730E-005
                    59 -3.464168379035516E-013
                    60  1.016581526108161E-012
                    61  4.445503068546974E-009
                    62 -2.335160739997693E-004
                    63 -1.556486294534171E-003
                    64  5.108770197640314E-005
                    65  6.561675689264729E-004
                    66  8.091082352179236E-012
                    67 -7.385605450435990E-004
                    68  7.877957740169604E-004
                    69 -4.671112132447815E-012
                    70 -1.441446431343250E-005
                    71  5.688867589614936E-004
                    72 -2.649177950696537E-012
                    73 -8.025574227867680E-004
                    74 -2.508356515237550E-004
                    75  8.135237077556752E-005
                    76 -1.389587041328136E-013
                    77 -3.857206201173799E-006
                    78  3.181861619494322E-005
                    79 -7.897953422759321E-013
                    80  2.656998392711590E-005
                    81 -9.298871416781696E-013
                    82  1.084888087367340E-004
                    83 -5.637589201215708E-006
                    84  2.523628710981918E-012
                    85 -9.284938498992964E-005
                    86 -7.664195311816107E-013
                    87 -2.602011201094955E-005
                    88  2.056475015420092E-005
                    89  1.375756208430384E-012
                    90 -1.283575888638551E-012
                    91  1.220786036816182E-005
                    92 -2.335079253367204E-004
                    93 -1.556437651714208E-003
                    94  5.122712015755792E-005
                    95  6.557204136017148E-004
                    96  2.187964208711159E-012
                    97  7.385954639770855E-004
                    98  7.879039915439541E-004
                    99 -1.151489099941548E-013
                   100  1.422281718494082E-005
                   101  5.682238059396926E-004
                   102  5.036158286886725E-012
                   103  8.020541363579706E-004
                   104 -2.510622025579176E-004
                   105  8.132384178483522E-005
                   106 -1.843128929754975E-012
                   107  3.869317970349087E-006
                   108  3.182168353365270E-005
                   109 -1.189651357774279E-012
                   110  2.615465869131255E-005
                   111  2.200276284910068E-012
                   112 -1.085260064251758E-004
                   113 -5.751001012391518E-006
                   114  4.246838015239973E-012
                   115 -9.279446350250768E-005
                   116  8.805243653649520E-013
                   117  2.600136502547268E-005
                   118  2.056793964584536E-005
                   119 -3.848272812230008E-013
                   120 -1.861621904547478E-012
                   121 -1.220702548026396E-005
                   122 -1.645580828688188E-004
                   123 -1.349294024680645E-004
                   124  1.080223010326595E-004
                   125  1.908383552738516E-004
                   126  3.390498328540608E-012
                   127  2.504151307168171E-005
                   128 -6.538709102113343E-004
                   129 -1.359992653967079E-012
                   130  7.306859126766668E-005
                   131  3.460522824969520E-004
                   132  3.070433549374654E-012
                   133 -1.926275214758314E-004
                   134  7.666777932900632E-004
                   135 -1.878999561987581E-005
                   136  3.104690386994507E-012
                   137  3.946706380165000E-007
                   138 -2.197302370546106E-006
                   139 -2.028729176503052E-016
                   140 -2.017915750163393E-004
                   141 -1.479115372296883E-012
                   142  1.446703420082262E-004
                   143  1.916398955430090E-005
                   144  2.725063297108623E-013
                   145 -3.974556476132753E-005
                   146  1.838699816618947E-012
                   147  3.866558156316804E-006
                   148 -1.027736674165183E-005
                   149 -6.919634133924762E-013
                   150 -8.997430722134138E-013
                   151 -4.443039489107732E-006
                   152 -1.648774384194604E-004
                   153 -1.360622969900349E-004
                   154  1.077149817922939E-004
                   155  1.927932345589357E-004
                   156  2.353524241982253E-012
                   157 -2.510593455462216E-005
                   158 -6.537850032178996E-004
                   159 -6.206450341579377E-012
                   160 -7.293383427548172E-005
                   161  3.454823626861633E-004
                   162 -3.283068515485934E-012
                   163  1.931823445029572E-004
                   164  7.664676105561228E-004
                   165 -1.874859445980141E-005
                   166 -5.794060175314067E-013
                   167 -3.850829304906648E-007
                   168 -2.218475469303652E-006
                   169  1.812634103669813E-013
                   170 -2.015596182908911E-004
                   171 -3.184403621671711E-013
                   172 -1.447197152789097E-004
                   173  1.921312345270625E-005
                   174 -3.251691344206440E-012
                   175 -3.968036694530091E-005
                   176  1.989382606302325E-012
                   177 -3.836428045359671E-006
                   178 -1.029691544024612E-005
                   179 -1.644118134900930E-012
                   180 -1.601153461138744E-013
                   181  4.433287452556540E-006
                   182 -1.239177148683043E-004
                   183 -3.302048352664863E-004
                   184  4.064242991066660E-005
                   185  1.487197238144835E-004
                   186  1.449937746164796E-011
                   187 -1.468729235871143E-008
                   188 -5.070337385091304E-005
                   189 -8.238480863644663E-012
                   190  6.483101249735691E-010
                   191  3.575245749784975E-005
                   192 -5.916699376603102E-012
                   193  1.757663674309840E-007
                   194 -2.307089915365401E-005
                   195  1.721980705709608E-005
                   196 -1.217151903500963E-012
                   197  3.480862410752141E-009
                   198  7.609368891212864E-006
                   199  1.031703918166502E-012
                   200  5.229579003719997E-005
                   201  1.819095862730603E-012
                   202  1.138864142767759E-008
                   203  5.994298301777854E-005
                   204  8.344660594844189E-014
                   205 -8.180761392514378E-006
                   206 -1.767274191377484E-013
                   207 -8.268344559922508E-009
                   208 -1.560302590756240E-006
                   209 -1.337370640658616E-012
                   210 -1.131231716808091E-012
                   211  4.228161805298546E-010
                   212  1.513227183312155E-003
                   213 -1.060585288841939E-003
                   214  1.623149672508730E-012
                   215  3.673047821233585E-004
                   216  2.927411775737911E-004
                   217  1.513229229810082E-003
                   218 -1.060579130787497E-003
                   219  1.117698066725460E-013
                   220 -3.673139275625521E-004
                   221  2.927443167924389E-004
                   222 -4.852775747296484E-004
                   223 -3.427785105570159E-004
                   224 -6.858962994888174E-013
                   225 -9.282699316453885E-006
                   226 -3.656111570121094E-005
                   227 -4.853444563932317E-004
                   228 -3.425577434615130E-004
                   229 -2.320451780923798E-012
                   230  9.261526033174363E-006
                   231 -3.658821062122396E-005
                   232 -1.811482461528333E-004
                   233 -4.443395111663377E-004
                   234 -8.212360720554415E-013
                   235 -2.205486353286261E-006
                   236  9.526059264359913E-007
                   237 -1.812679004771167E-004
                   238 -4.443871944758310E-004
                   239  4.751443312862011E-012
                   240  2.265411052623815E-006
                   241  9.791696096538093E-007
                   242  5.105557184070060E-005
                   243 -1.015103317322180E-004
                   244 -7.708208597805600E-014
                   245 -8.684183871535579E-010
                   246  1.520180296684176E-005
 Sym= __2_A__
 Ene=   2.00000000000000     
 Spin= Alpha
 Occup=    1.00000000000000     
                     1 -5.591031577030443E-005
                     2 -2.713767456071192E-004
                     3  2.717551936844530E-003
                     4  1.315195194929449E-004
                     5  1.259376176305639E-003
                     6 -1.778223722212181E-012
                     7  4.703273585140213E-009
                     8  3.071329276045094E-003
                     9  3.093958907734070E-013
                    10 -3.505370657197575E-009
                    11 -8.053607250009867E-005
                    12 -1.174353806321612E-012
                    13  3.989058968393142E-009
                    14 -4.782680873515966E-004
                    15  4.163692388267400E-005
                    16  6.311572141872206E-013
                    17  6.374701075394504E-010
                    18  6.511185008519577E-005
                    19  1.723900020423841E-013
                    20 -1.631359921798604E-004
                    21 -6.329804809383191E-012
                    22 -9.871529216953745E-010
                    23 -2.513052925580882E-004
                    24  4.649387152347649E-012
                    25  1.824894698537116E-004
                    26 -7.981027789646928E-013
                    27 -1.919209994312502E-010
                    28 -8.320669790197387E-006
                    29 -4.394049132646928E-013
                    30  7.240746434313531E-013
                    31  8.131896295951902E-010
                    32   1.00104825753805     
                    33  9.340817791022839E-003
                    34  2.657936251217221E-003
                    35 -7.878520464274529E-003
                    36 -5.800378280078093E-012
                    37 -5.138987450587846E-009
                    38 -4.214481295636225E-003
                    39 -1.541172014477331E-012
                    40  5.957179433061108E-010
                    41  9.891669840567138E-004
                    42 -3.971238302407753E-012
                    43 -6.439726402670844E-008
                    44  4.418425860411491E-003
                    45  4.781095225645330E-004
                    46  3.927184676260953E-012
                    47 -2.692148964199660E-009
                    48 -4.217006920615872E-004
                    49 -3.766062808645562E-013
                    50  5.241406373095881E-004
                    51 -1.189784313137688E-011
                    52  6.539254440603419E-009
                    53  9.101734573605977E-004
                    54 -8.168154777449913E-012
                    55  3.826832763526990E-004
                    56 -9.876324457653350E-013
                    57 -9.072369325130488E-010
                    58 -1.975860292470865E-004
                    59  2.888909241287172E-012
                    60 -4.716486590611653E-013
                    61  1.473538912806639E-009
                    62  7.514295041947937E-003
                    63 -2.083923181354178E-003
                    64 -2.737683940798042E-004
                    65  3.017352129037073E-003
                    66 -2.867867757588605E-014
                    67  4.916785225036847E-005
                    68  4.229518036229670E-005
                    69 -5.312325776393735E-012
                    70  6.120677248872685E-004
                    71  3.494137811589651E-005
                    72  1.675593783882466E-011
                    73 -2.077195922819175E-003
                    74  1.054404216785298E-004
                    75 -1.267253408663555E-005
                    76 -5.625737209978603E-012
                    77  1.231005870532325E-005
                    78  3.068588795111884E-005
                    79 -4.088922386115081E-012
                    80  7.509748911773372E-004
                    81  8.599861178805502E-012
                    82 -3.970481463154850E-004
                    83 -2.172838108904364E-005
                    84  9.455708806113340E-012
                    85  7.386333136370149E-005
                    86 -3.257256735751384E-013
                    87  4.517715571645108E-005
                    88 -1.285399770473098E-004
                    89 -3.548710597723055E-012
                    90 -2.102775828947478E-012
                    91  4.889715862675633E-005
                    92  7.514268514328907E-003
                    93 -2.084007931548633E-003
                    94 -2.738086013849923E-004
                    95  3.017549275449101E-003
                    96 -1.147780271583681E-011
                    97 -4.916869516309262E-005
                    98  4.227418112399780E-005
                    99  1.277982469841494E-011
                   100 -6.120690811928256E-004
                   101  3.506231785387268E-005
                   102  6.683747909497677E-012
                   103  2.077311406909224E-003
                   104  1.052905775088583E-004
                   105 -1.265812694551858E-005
                   106  2.292234352432949E-012
                   107 -1.231608896390640E-005
                   108  3.068441201286988E-005
                   109 -2.311074418935498E-012
                   110  7.510257593080918E-004
                   111 -7.479988035838732E-012
                   112  3.970949843740336E-004
                   113 -2.171113573768712E-005
                   114 -6.676186984222084E-012
                   115  7.385130537730639E-005
                   116 -4.851133391293414E-013
                   117 -4.517412013362799E-005
                   118 -1.285375694384594E-004
                   119  2.499489428115212E-012
                   120  1.148306555781807E-012
                   121 -4.889562845882250E-005
                   122 -2.201672551916662E-004
                   123 -7.295282808644362E-004
                   124  2.261215578558194E-004
                   125 -1.146940300214643E-004
                   126  1.270649001636504E-011
                   127 -1.238394430500991E-005
                   128 -2.927526193950145E-004
                   129 -1.052023753765250E-011
                   130 -2.498366287907444E-005
                   131  5.392889641618647E-004
                   132 -2.917156657246620E-011
                   133  3.302803156460200E-004
                   134  7.516530755487794E-004
                   135 -1.346385993170127E-005
                   136  2.202527688887636E-012
                   137  5.266188641364832E-005
                   138  1.462046386816994E-005
                   139 -2.804330244061385E-012
                   140 -2.877759104116163E-004
                   141 -4.056511869881757E-012
                   142 -2.095009797291343E-004
                   143 -1.307099145707612E-005
                   144 -5.046181803756242E-012
                   145  1.504374512311183E-006
                   146 -4.429299432094778E-012
                   147 -4.277545913382860E-005
                   148 -4.041420452878136E-005
                   149 -2.312066202689625E-012
                   150 -5.471678775843511E-013
                   151 -5.389574056958151E-006
                   152 -2.198895972778151E-004
                   153 -7.286079442509874E-004
                   154  2.261752877230946E-004
                   155 -1.156355221163308E-004
                   156 -3.911441897504437E-012
                   157  1.237714994551390E-005
                   158 -2.927563274739109E-004
                   159  2.647513534786131E-012
                   160  2.501278674306013E-005