[Molden Format]
[Atoms] AU
  N     1    7    -4.4759662800    0.1572704100   -0.2360249700        
  C     2    6    -1.7555168000    0.0174609000   -0.1062475400        
  C     3    6    -0.3748721400    0.2003568000   -2.3410281600        
  C     4    6    -0.4591202800   -0.1479177000    2.1774112400        
  C     5    6     2.2369814400    0.1650388000   -2.2848992800        
  C     6    6     2.1603495700   -0.1317823000    2.2200817600        
  C     7    6     3.5171225200    0.0120847500   -0.0061980200        
  H     8    1    -5.1724635900   -1.5835638300   -0.7636130800        
  H     9    1    -5.1274978700    0.4120078400    1.5763837800        
  H    10    1    -1.3609518700    0.3844892400   -4.1014723000        
  H    11    1    -1.4945816800   -0.3039812300    3.9147751400        
  H    12    1     3.2779057100    0.2939664200   -4.0217060900        
  H    13    1     3.1327199400   -0.2519860700    3.9971283400        
  H    14    1     5.5453341700    0.0099751400    0.0288810400        
[5D]
[7F]
[GTO]
  1  0
   s    12 1.00
  0.114200D+05  0.172695D-04
  0.171200D+04  0.134411D-03
  0.389300D+03  0.694561D-03
  0.110000D+03  0.278531D-02
  0.355700D+02  0.863457D-02
  0.125400D+02  0.199805D-01
  0.464400D+01  0.262908D-01
  0.129300D+01 -0.243845D-01
  0.511800D+00 -0.924934D-01
  0.178700D+00 -0.339683D+00
  0.246240D-01  0.345111D+00
  0.112530D-01  0.752750D+00
   s    10 1.00
  0.114200D+05  0.523000D-03
  0.171200D+04  0.404500D-02
  0.389300D+03  0.207750D-01
  0.110000D+03  0.807269D-01
  0.355700D+02  0.233074D+00
  0.125400D+02  0.433501D+00
  0.464400D+01  0.347472D+00
  0.129300D+01  0.412620D-01
  0.511800D+00 -0.850799D-02
  0.178700D+00  0.238400D-02
   s    10 1.00
  0.114200D+05 -0.115000D-03
  0.171200D+04 -0.895000D-03
  0.389300D+03 -0.462400D-02
  0.110000D+03 -0.185280D-01
  0.355700D+02 -0.573390D-01
  0.125400D+02 -0.132076D+00
  0.464400D+01 -0.172510D+00
  0.129300D+01  0.151814D+00
  0.511800D+00  0.599944D+00
  0.178700D+00  0.387462D+00
   s     1 1.00
  0.129300D+01  0.100000D+01
   s     1 1.00
  0.178700D+00  0.100000D+01
   p     5 1.00
  0.266300D+02  0.146700D-01
  0.594800D+01  0.917640D-01
  0.174200D+01  0.298683D+00
  0.555000D+00  0.498487D+00
  0.172500D+00  0.337023D+00
   p     1 1.00
  0.174200D+01  0.100000D+01
   p     1 1.00
  0.555000D+00  0.100000D+01
   d     1 1.00
  0.165400D+01  0.100000D+01
   d     1 1.00
  0.469000D+00  0.100000D+01
   f     1 1.00
  0.109300D+01  0.100000D+01
  
  2  0
   s    10 1.00
  0.823600D+04  0.531000D-03
  0.123500D+04  0.410800D-02
  0.280800D+03  0.210870D-01
  0.792700D+02  0.818530D-01
  0.255900D+02  0.234817D+00
  0.899700D+01  0.434401D+00
  0.331900D+01  0.346129D+00
  0.905900D+00  0.393780D-01
  0.364300D+00 -0.898300D-02
  0.128500D+00  0.238500D-02
   s    10 1.00
  0.823600D+04 -0.113000D-03
  0.123500D+04 -0.878000D-03
  0.280800D+03 -0.454000D-02
  0.792700D+02 -0.181330D-01
  0.255900D+02 -0.557600D-01
  0.899700D+01 -0.126895D+00
  0.331900D+01 -0.170352D+00
  0.905900D+00  0.140382D+00
  0.364300D+00  0.598684D+00
  0.128500D+00  0.395389D+00
   s     1 1.00
  0.905900D+00  0.100000D+01
   s     1 1.00
  0.364300D+00  0.100000D+01
   p     5 1.00
  0.187100D+02  0.140310D-01
  0.413300D+01  0.868660D-01
  0.120000D+01  0.290216D+00
  0.382700D+00  0.501008D+00
  0.120900D+00  0.343406D+00
   p     1 1.00
  0.382700D+00  0.100000D+01
   p     1 1.00
  0.120900D+00  0.100000D+01
   d     1 1.00
  0.109700D+01  0.100000D+01
   d     1 1.00
  0.318000D+00  0.100000D+01
   f     1 1.00
  0.761000D+00  0.100000D+01
  
  3  0
   s    10 1.00
  0.823600D+04  0.531000D-03
  0.123500D+04  0.410800D-02
  0.280800D+03  0.210870D-01
  0.792700D+02  0.818530D-01
  0.255900D+02  0.234817D+00
  0.899700D+01  0.434401D+00
  0.331900D+01  0.346129D+00
  0.905900D+00  0.393780D-01
  0.364300D+00 -0.898300D-02
  0.128500D+00  0.238500D-02
   s    10 1.00
  0.823600D+04 -0.113000D-03
  0.123500D+04 -0.878000D-03
  0.280800D+03 -0.454000D-02
  0.792700D+02 -0.181330D-01
  0.255900D+02 -0.557600D-01
  0.899700D+01 -0.126895D+00
  0.331900D+01 -0.170352D+00
  0.905900D+00  0.140382D+00
  0.364300D+00  0.598684D+00
  0.128500D+00  0.395389D+00
   s     1 1.00
  0.905900D+00  0.100000D+01
   s     1 1.00
  0.364300D+00  0.100000D+01
   p     5 1.00
  0.187100D+02  0.140310D-01
  0.413300D+01  0.868660D-01
  0.120000D+01  0.290216D+00
  0.382700D+00  0.501008D+00
  0.120900D+00  0.343406D+00
   p     1 1.00
  0.382700D+00  0.100000D+01
   p     1 1.00
  0.120900D+00  0.100000D+01
   d     1 1.00
  0.109700D+01  0.100000D+01
   d     1 1.00
  0.318000D+00  0.100000D+01
   f     1 1.00
  0.761000D+00  0.100000D+01
  
  4  0
   s    10 1.00
  0.823600D+04  0.531000D-03
  0.123500D+04  0.410800D-02
  0.280800D+03  0.210870D-01
  0.792700D+02  0.818530D-01
  0.255900D+02  0.234817D+00
  0.899700D+01  0.434401D+00
  0.331900D+01  0.346129D+00
  0.905900D+00  0.393780D-01
  0.364300D+00 -0.898300D-02
  0.128500D+00  0.238500D-02
   s    10 1.00
  0.823600D+04 -0.113000D-03
  0.123500D+04 -0.878000D-03
  0.280800D+03 -0.454000D-02
  0.792700D+02 -0.181330D-01
  0.255900D+02 -0.557600D-01
  0.899700D+01 -0.126895D+00
  0.331900D+01 -0.170352D+00
  0.905900D+00  0.140382D+00
  0.364300D+00  0.598684D+00
  0.128500D+00  0.395389D+00
   s     1 1.00
  0.905900D+00  0.100000D+01
   s     1 1.00
  0.364300D+00  0.100000D+01
   p     5 1.00
  0.187100D+02  0.140310D-01
  0.413300D+01  0.868660D-01
  0.120000D+01  0.290216D+00
  0.382700D+00  0.501008D+00
  0.120900D+00  0.343406D+00
   p     1 1.00
  0.382700D+00  0.100000D+01
   p     1 1.00
  0.120900D+00  0.100000D+01
   d     1 1.00
  0.109700D+01  0.100000D+01
   d     1 1.00
  0.318000D+00  0.100000D+01
   f     1 1.00
  0.761000D+00  0.100000D+01
  
  5  0
   s    10 1.00
  0.823600D+04  0.531000D-03
  0.123500D+04  0.410800D-02
  0.280800D+03  0.210870D-01
  0.792700D+02  0.818530D-01
  0.255900D+02  0.234817D+00
  0.899700D+01  0.434401D+00
  0.331900D+01  0.346129D+00
  0.905900D+00  0.393780D-01
  0.364300D+00 -0.898300D-02
  0.128500D+00  0.238500D-02
   s    10 1.00
  0.823600D+04 -0.113000D-03
  0.123500D+04 -0.878000D-03
  0.280800D+03 -0.454000D-02
  0.792700D+02 -0.181330D-01
  0.255900D+02 -0.557600D-01
  0.899700D+01 -0.126895D+00
  0.331900D+01 -0.170352D+00
  0.905900D+00  0.140382D+00
  0.364300D+00  0.598684D+00
  0.128500D+00  0.395389D+00
   s     1 1.00
  0.905900D+00  0.100000D+01
   s     1 1.00
  0.364300D+00  0.100000D+01
   p     5 1.00
  0.187100D+02  0.140310D-01
  0.413300D+01  0.868660D-01
  0.120000D+01  0.290216D+00
  0.382700D+00  0.501008D+00
  0.120900D+00  0.343406D+00
   p     1 1.00
  0.382700D+00  0.100000D+01
   p     1 1.00
  0.120900D+00  0.100000D+01
   d     1 1.00
  0.109700D+01  0.100000D+01
   d     1 1.00
  0.318000D+00  0.100000D+01
   f     1 1.00
  0.761000D+00  0.100000D+01
  
  6  0
   s    10 1.00
  0.823600D+04  0.531000D-03
  0.123500D+04  0.410800D-02
  0.280800D+03  0.210870D-01
  0.792700D+02  0.818530D-01
  0.255900D+02  0.234817D+00
  0.899700D+01  0.434401D+00
  0.331900D+01  0.346129D+00
  0.905900D+00  0.393780D-01
  0.364300D+00 -0.898300D-02
  0.128500D+00  0.238500D-02
   s    10 1.00
  0.823600D+04 -0.113000D-03
  0.123500D+04 -0.878000D-03
  0.280800D+03 -0.454000D-02
  0.792700D+02 -0.181330D-01
  0.255900D+02 -0.557600D-01
  0.899700D+01 -0.126895D+00
  0.331900D+01 -0.170352D+00
  0.905900D+00  0.140382D+00
  0.364300D+00  0.598684D+00
  0.128500D+00  0.395389D+00
   s     1 1.00
  0.905900D+00  0.100000D+01
   s     1 1.00
  0.364300D+00  0.100000D+01
   p     5 1.00
  0.187100D+02  0.140310D-01
  0.413300D+01  0.868660D-01
  0.120000D+01  0.290216D+00
  0.382700D+00  0.501008D+00
  0.120900D+00  0.343406D+00
   p     1 1.00
  0.382700D+00  0.100000D+01
   p     1 1.00
  0.120900D+00  0.100000D+01
   d     1 1.00
  0.109700D+01  0.100000D+01
   d     1 1.00
  0.318000D+00  0.100000D+01
   f     1 1.00
  0.761000D+00  0.100000D+01
  
  7  0
   s    10 1.00
  0.823600D+04  0.531000D-03
  0.123500D+04  0.410800D-02
  0.280800D+03  0.210870D-01
  0.792700D+02  0.818530D-01
  0.255900D+02  0.234817D+00
  0.899700D+01  0.434401D+00
  0.331900D+01  0.346129D+00
  0.905900D+00  0.393780D-01
  0.364300D+00 -0.898300D-02
  0.128500D+00  0.238500D-02
   s    10 1.00
  0.823600D+04 -0.113000D-03
  0.123500D+04 -0.878000D-03
  0.280800D+03 -0.454000D-02
  0.792700D+02 -0.181330D-01
  0.255900D+02 -0.557600D-01
  0.899700D+01 -0.126895D+00
  0.331900D+01 -0.170352D+00
  0.905900D+00  0.140382D+00
  0.364300D+00  0.598684D+00
  0.128500D+00  0.395389D+00
   s     1 1.00
  0.905900D+00  0.100000D+01
   s     1 1.00
  0.364300D+00  0.100000D+01
   p     5 1.00
  0.187100D+02  0.140310D-01
  0.413300D+01  0.868660D-01
  0.120000D+01  0.290216D+00
  0.382700D+00  0.501008D+00
  0.120900D+00  0.343406D+00
   p     1 1.00
  0.382700D+00  0.100000D+01
   p     1 1.00
  0.120900D+00  0.100000D+01
   d     1 1.00
  0.109700D+01  0.100000D+01
   d     1 1.00
  0.318000D+00  0.100000D+01
   f     1 1.00
  0.761000D+00  0.100000D+01
  
  8  0
   s     4 1.00
  0.130100D+02  0.196850D-01
  0.196200D+01  0.137977D+00
  0.444600D+00  0.478148D+00
  0.122000D+00  0.501240D+00
   s     1 1.00
  0.122000D+00  0.100000D+01
   p     1 1.00
  0.727000D+00  0.100000D+01
  
  9  0
   s     4 1.00
  0.130100D+02  0.196850D-01
  0.196200D+01  0.137977D+00
  0.444600D+00  0.478148D+00
  0.122000D+00  0.501240D+00
   s     1 1.00
  0.122000D+00  0.100000D+01
   p     1 1.00
  0.727000D+00  0.100000D+01
  
 10  0
   s     4 1.00
  0.130100D+02  0.196850D-01
  0.196200D+01  0.137977D+00
  0.444600D+00  0.478148D+00
  0.122000D+00  0.501240D+00
   s     1 1.00
  0.122000D+00  0.100000D+01
   p     1 1.00
  0.727000D+00  0.100000D+01
  
 11  0
   s     4 1.00
  0.130100D+02  0.196850D-01
  0.196200D+01  0.137977D+00
  0.444600D+00  0.478148D+00
  0.122000D+00  0.501240D+00
   s     1 1.00
  0.122000D+00  0.100000D+01
   p     1 1.00
  0.727000D+00  0.100000D+01
  
 12  0
   s     4 1.00
  0.130100D+02  0.196850D-01
  0.196200D+01  0.137977D+00
  0.444600D+00  0.478148D+00
  0.122000D+00  0.501240D+00
   s     1 1.00
  0.122000D+00  0.100000D+01
   p     1 1.00
  0.727000D+00  0.100000D+01
  
 13  0
   s     4 1.00
  0.130100D+02  0.196850D-01
  0.196200D+01  0.137977D+00
  0.444600D+00  0.478148D+00
  0.122000D+00  0.501240D+00
   s     1 1.00
  0.122000D+00  0.100000D+01
   p     1 1.00
  0.727000D+00  0.100000D+01
  
 14  0
   s     4 1.00
  0.130100D+02  0.196850D-01
  0.196200D+01  0.137977D+00
  0.444600D+00  0.478148D+00
  0.122000D+00  0.501240D+00
   s     1 1.00
  0.122000D+00  0.100000D+01
   p     1 1.00
  0.727000D+00  0.100000D+01
  
[MO]
 Sym= __1_A__
 Ene=  0.000000000000000E+000
 Spin= Alpha
 Occup=    2.00000000000000     
                     1  2.278813965149378E-004
                     2  0.998103521203099     
                     3 -1.265574239052533E-004
                     4  1.941394560563635E-003
                     5  6.576605508936221E-003
                     6  6.079144225489620E-003
                     7 -4.191219419484728E-003
                     8  4.842760935329996E-003
                     9 -9.358985780747805E-004
                    10  3.306712273007170E-004
                    11 -5.834311508810626E-004
                    12 -1.862726181771246E-003
                    13  2.692578342556896E-003
                    14 -2.760976314983587E-003
                    15  7.044705109513462E-006
                    16 -6.430895467798559E-005
                    17 -2.637130226738085E-005
                    18  4.070938557015768E-005
                    19  3.742579301121839E-005
                    20 -2.070834580536514E-004
                    21  4.838483580873495E-004
                    22 -2.207469832725082E-004
                    23  1.517921862302150E-004
                    24 -3.776359550214174E-004
                    25 -3.268354823984982E-005
                    26 -1.029233432908081E-004
                    27  4.566799195737638E-005
                    28  5.252090853162430E-005
                    29 -1.223181946988585E-005
                    30 -9.978737581654463E-005
                    31 -1.514159688579868E-005
                    32 -3.369122790260172E-004
                    33  5.641648523873825E-004
                    34  2.559760062873062E-004
                    35 -6.254349723206414E-005
                    36 -3.229912885045690E-003
                    37 -2.523983685785504E-004
                    38 -2.522720453754307E-004
                    39  2.026202651962819E-004
                    40 -8.713344356326165E-005
                    41  8.271366533367136E-004
                    42  4.745414292550057E-003
                    43  7.499737158439037E-004
                    44 -3.289418950452833E-003
                    45 -1.768302095220045E-004
                    46  2.529393967272158E-005
                    47  1.374035644012041E-005
                    48  1.760861985871817E-004
                    49  3.871434610975305E-005
                    50  5.332556290314525E-004
                    51  6.509579477461723E-004
                    52 -9.594800103886906E-005
                    53 -1.439299815881473E-004
                    54 -3.263541765754599E-004
                    55  3.836849525723925E-005
                    56 -4.409353929944894E-005
                    57 -1.745751497469918E-006
                    58  3.861563875818802E-005
                    59  1.598330846553184E-006
                    60 -3.471958405553228E-005
                    61  1.725052326905584E-005
                    62 -7.035899398086105E-004
                    63 -2.668327798272715E-003
                    64 -4.618046990342841E-005
                    65  2.457357242589137E-003
                    66  1.766434531014599E-004
                    67 -1.553423226987856E-004
                    68 -5.151558009285113E-004
                    69  8.647309397513018E-004
                    70  4.837376955224129E-006
                    71  5.909840329006228E-004
                    72  1.576664521984712E-003
                    73 -8.872434993548207E-005
                    74 -1.497107440546471E-003
                    75 -5.998571074472703E-005
                    76 -3.606469670809956E-005
                    77  1.165614340264378E-005
                    78  7.903899481582498E-005
                    79 -7.806149429785492E-007
                    80  4.276637005610590E-004
                    81  1.885903088552360E-004
                    82 -7.832352468677009E-005
                    83 -5.873798881097166E-005
                    84  7.099948543593663E-006
                    85 -2.361071953345981E-005
                    86 -1.351212274509775E-004
                    87  1.276259877475988E-005
                    88  7.184742525477026E-006
                    89  1.733820788947942E-005
                    90 -7.126122938539931E-005
                    91 -1.090500487566410E-005
                    92 -3.036024322051860E-005
                    93 -5.011484270416472E-004
                    94  2.697466060462120E-004
                    95 -8.766559762241282E-004
                    96  4.276053691585678E-004
                    97 -1.853386905215514E-004
                    98  3.151514904153444E-004
                    99  2.637072019321746E-004
                   100  4.364415137696929E-005
                   101  4.008402446437633E-004
                   102 -2.342985265091225E-003
                   103 -1.955743947854471E-004
                   104  1.600321811286267E-004
                   105 -5.777367903025626E-005
                   106 -3.386665401524060E-006
                   107 -3.632971340312628E-006
                   108  3.580678836418048E-005
                   109 -5.712952816471172E-006
                   110 -6.694960629860835E-005
                   111 -2.071778172137860E-004
                   112  2.087269310263683E-005
                   113 -2.317219144089620E-004
                   114  5.139816351378144E-005
                   115 -1.994740723704629E-005
                   116  3.476452357618937E-005
                   117  1.287519819302305E-005
                   118  1.847482507278756E-005
                   119 -1.147623534251370E-005
                   120 -1.279538324136849E-005
                   121 -6.685477730815029E-006
                   122 -3.073766305254299E-004
                   123 -8.073142074624401E-004
                   124  1.091737658111689E-004
                   125  8.877939814517890E-004
                   126 -4.006899520592262E-004
                   127 -5.068154877646526E-005
                   128 -3.207336915897671E-005
                   129  5.533766635858790E-004
                   130 -2.910487838295540E-005
                   131  2.679208287344813E-004
                   132  2.790971856977645E-003
                   133  5.066892585106922E-005
                   134  4.501101511500352E-004
                   135  3.065853429860840E-005
                   136  1.258999826417520E-007
                   137 -4.863029892123199E-006
                   138 -1.669522187311937E-005
                   139  8.773593676410631E-006
                   140  2.474587238872542E-004
                   141  3.682513020677496E-004
                   142  1.476083847753255E-006
                   143 -3.782169552754078E-004
                   144 -2.790547079921548E-005
                   145 -3.606477371888171E-005
                   146 -2.301038162007387E-005
                   147 -3.132211097370560E-006
                   148 -1.395855684541563E-005
                   149 -5.041985769768846E-006
                   150 -8.218443138777087E-005
                   151 -1.923061288550788E-006
                   152 -1.377448151330442E-004
                   153 -2.459340098429700E-004
                   154 -3.029000418345534E-005
                   155  4.958066612314310E-004
                   156 -3.194708344894206E-004
                   157 -3.744201076010216E-005
                   158 -5.813491115265771E-005
                   159 -1.886444350825051E-004
                   160 -3.503927618941916E-005
                   161  2.429969257647249E-004
                   162 -1.099076881693786E-003
                   163  5.653237533622819E-006
                   164  9.241219880866055E-004
                   165 -1.885064460858488E-005
                   166  8.786249583795432E-006
                   167  2.353928713157344E-006
                   168  1.723869481292513E-005
                   169  5.347092130318488E-006
                   170 -8.260082468294287E-005
                   171 -2.197642360839478E-005
                   172  1.139927908133449E-005
                   173  3.226805992446008E-005
                   174  7.778730750864044E-006
                   175 -1.211067261017371E-005
                   176 -5.083855039112458E-006
                   177  4.066582449968893E-007
                   178 -6.776494809560922E-006
                   179  2.217908543653702E-007
                   180 -2.365130581228417E-006
                   181 -3.251394137792524E-006
                   182 -1.537729440997833E-004
                   183 -4.773930381981837E-004
                   184  3.700154622715635E-005
                   185  1.982925197869533E-004
                   186 -1.941137214093479E-005
                   187 -6.965772522782311E-006
                   188 -8.711131980687319E-005
                   189  9.106178520951773E-005
                   190 -1.193108252216239E-005
                   191  3.918686871047169E-004
                   192 -4.256877289983021E-004
                   193 -1.803228557677612E-004
                   194  2.130451247040365E-003
                   195 -6.442883113077207E-006
                   196  4.460416278565713E-006
                   197  3.809386961794667E-007
                   198  1.701365967958475E-006
                   199 -3.470943286025693E-007
                   200 -1.303036073830782E-004
                   201 -3.210775246529074E-004
                   202  1.382012460369370E-005
                   203  6.603944413202275E-005
                   204  2.737181475515791E-005
                   205  3.604628032363024E-006
                   206  3.136165866670058E-006
                   207 -3.508314094500478E-007
                   208  2.471815903633658E-005
                   209 -1.967735470479238E-006
                   210 -4.608236313730235E-006
                   211 -3.241974853190413E-006
                   212  1.177536143507580E-003
                   213 -1.431031982281616E-003
                   214  1.175178706328400E-004
                   215  3.487379771263173E-004
                   216  4.152896865353127E-005
                   217  1.955282519060078E-003
                   218 -1.778267280888434E-003
                   219  1.595508354549346E-004
                   220  1.904513215955888E-005
                   221 -4.347431516334916E-004
                   222 -4.565813869933005E-004
                   223 -2.172262590754805E-004
                   224 -9.708939789041810E-005
                   225  3.653373054181425E-006
                   226  4.173962308221150E-005
                   227 -2.758513173333257E-004
                   228 -5.234642625807881E-004
                   229 -2.896080590767302E-005
                   230  1.427413000974430E-005
                   231 -5.042880795645162E-005
                   232  1.864873011033104E-005
                   233 -7.113013612958495E-004
                   234 -1.724256259853075E-006
                   235 -1.330506018572715E-006
                   236  3.528858776912329E-006
                   237 -1.228341829112122E-004
                   238 -2.501242828334433E-004
                   239  1.898218502169509E-005
                   240 -3.718932450607333E-006
                   241  2.162091168762036E-005
                   242 -1.629943138968747E-005
                   243  1.208651843992315E-004
                   244  3.051262944605262E-005
                   245  1.710482764756901E-006
                   246  1.701923539375535E-006
 Sym= __2_A__
 Ene=  0.000000000000000E+000
 Spin= Alpha
 Occup=    2.00000000000000     
                     1 -2.897998608983620E-006
                     2 -8.897028792800161E-005
                     3  1.538887013245688E-003
                     4 -2.214258472079327E-005
                     5  1.191994258870222E-003
                     6  1.578474917400733E-003
                     7 -3.308866183061203E-005
                     8 -1.908311748998143E-004
                     9 -1.561759891902422E-004
                    10  1.072111055549668E-004
                    11 -3.366106911120477E-005
                    12  1.599348895598161E-004
                    13  1.426849517978490E-004
                    14  3.446792074253187E-005
                    15 -6.149374833043819E-005
                    16  1.667594818616481E-005
                    17 -6.920168790701514E-006
                    18  4.608813289509254E-005
                    19 -1.187697984837488E-006
                    20  1.089462771837388E-004
                    21 -7.144709331222224E-005
                    22  2.900800700312593E-005
                    23  1.224815352117846E-004
                    24 -6.406516404464349E-005
                    25 -5.933245639553735E-005
                    26  1.276916992398646E-004
                    27  2.661807962440070E-006
                    28 -1.708436203532766E-005
                    29 -5.790963585102601E-006
                    30  1.242113908921903E-004
                    31  3.477203018754445E-005
                    32   1.00090654681302     
                    33  8.685619182649349E-003
                    34  2.833101678369968E-003
                    35 -8.366681836772400E-003
                    36 -2.100044291216206E-003
                    37  4.357717843190887E-004
                    38  7.720665296207908E-005
                    39  1.056096134688080E-003
                    40 -1.671478800033976E-004
                    41 -1.911551835188126E-004
                    42  2.973350689929540E-003
                    43 -1.208663676900197E-004
                    44 -1.564374239202330E-004
                    45  3.063336619797052E-004
                    46  1.747055513567487E-005
                    47 -5.177178387250893E-005
                    48  3.651834629779276E-004
                    49 -9.555209988037894E-006
                    50 -9.948786299677126E-004
                    51 -2.146606944564811E-004
                    52  1.490242686677833E-004
                    53 -1.488055489305623E-004
                    54  1.771803536784082E-005
                    55 -1.180765341417831E-005
                    56  2.799906266434615E-004
                    57 -1.066208546784678E-005
                    58 -2.067783054840072E-005
                    59 -1.842886776261383E-005
                    60  7.057628248791522E-005
                    61  1.234868359844296E-005
                    62  1.436533015748880E-002
                    63 -1.747455831232574E-003
                    64 -2.862700246184946E-004
                    65  2.925510881236064E-003
                    66 -1.835302136952326E-004
                    67  3.430834063391760E-005
                    68  3.274657562160747E-004
                    69  3.221446001901160E-005
                    70 -2.925420410629674E-005
                    71  3.729644980385299E-004
                    72  4.290759423032220E-004
                    73  1.497526107910425E-004
                    74 -1.795272184201491E-003
                    75 -2.907931268254653E-006
                    76  2.549520809589562E-005
                    77  6.145075241638177E-006
                    78 -4.078410018820038E-005
                    79 -2.860798127144677E-006
                    80 -4.714856180932808E-004
                    81 -4.028001681312344E-004
                    82  2.252126944315962E-005
                    83  7.914189672810717E-004
                    84  1.190042375346213E-005
                    85  4.235540877842989E-005
                    86  1.068589833994027E-004
                    87  1.568110614146329E-005
                    88 -1.982452122197244E-005
                    89 -2.090027339342717E-005
                    90 -2.440294882266216E-005
                    91  2.013084277879579E-006
                    92  1.617062274401193E-002
                    93 -1.689354838110188E-003
                    94 -3.373731753828946E-004
                    95  3.268434654037659E-003
                    96 -2.247305383107017E-004
                    97  8.223026783344472E-005
                    98 -3.162681023628383E-004
                    99 -4.969402808952410E-005
                   100  5.610186924262007E-005
                   101 -6.661284648568315E-004
                   102  8.135973929054692E-005
                   103 -1.163255277247544E-004
                   104  1.654665341965962E-003
                   105  3.072385489217056E-006
                   106 -1.266202370490148E-005
                   107 -1.070386981207805E-007
                   108 -3.098492253684492E-005
                   109 -1.773308302504573E-006
                   110 -3.035402536385658E-004
                   111  4.876865516504180E-004
                   112 -2.886030068830404E-005
                   113  6.808046634579487E-004
                   114 -3.996386118533506E-005
                   115 -5.004028832818789E-005
                   116  9.427861404543187E-005
                   117 -8.659197654153357E-006
                   118  2.079941918390566E-005
                   119 -7.903116074982068E-006
                   120 -3.252500177771237E-005
                   121  1.161440513478663E-006
                   122 -1.181366685209629E-004
                   123 -7.663113843197221E-004
                   124  2.411008355266951E-004
                   125 -2.857837671242360E-004
                   126 -1.574597967963325E-004
                   127  1.451324101186887E-005
                   128 -5.363391987478875E-005
                   129  6.109708040553556E-004
                   130 -1.541356392193655E-005
                   131  7.757011299201894E-005
                   132  6.662901283706104E-004
                   133 -3.886784131027542E-005
                   134  4.183998722409652E-004
                   135  6.176564668759254E-007
                   136  3.966900551621576E-005
                   137  1.668282398255602E-006
                   138 -3.441590039582146E-005
                   139 -3.516494488222129E-006
                   140  1.982240671492004E-004
                   141 -2.640655693244190E-004
                   142 -3.213538425459777E-006
                   143 -2.464333133193934E-004
                   144  2.310224495848510E-005
                   145 -1.566366984561186E-005
                   146  1.446528948552715E-005
                   147 -2.363570373711636E-006
                   148 -8.653827804107807E-006
                   149 -3.748392928218771E-006
                   150 -2.131981349450393E-005
                   151  8.650162646834188E-007
                   152 -7.147775837079653E-005
                   153 -7.403661797701761E-004
                   154  2.479887988477651E-004
                   155 -2.859332878459297E-004
                   156 -1.334856965695916E-004
                   157 -3.753270959002373E-006
                   158  3.448938782451202E-005
                   159  5.373940937708916E-004
                   160  5.215980904076223E-006