[Molden Format]
[Atoms] AU
  N     1    7    -0.0848146300   -4.3262293700    0.0000000200        
  C     2    6     0.0383372200   -1.7995732300   -0.0000000100        
  C     3    6    -2.2898353200   -0.4086788000   -0.0000000200        
  C     4    6     2.3371326400   -0.3690043100   -0.0000000300        
  C     5    6    -2.2795523300    2.1751305700   -0.0000000100        
  C     6    6     2.2960687300    2.2167698000    0.0000000000        
  C     7    6    -0.0017863600    3.5175734300    0.0000000100        
  H     8    1    -3.3609748500   -6.5656869600    0.0000000600        
  H     9    1     1.7138854500   -5.0598135100    0.0000000000        
  H    10    1    -4.0222520800   -1.4550764900   -0.0000000400        
  H    11    1     4.1038972500   -1.3679573900   -0.0000000400        
  H    12    1    -4.0355762800    3.1923740900   -0.0000000300        
  H    13    1     4.0375312700    3.2584201900    0.0000000300        
  H    14    1    -0.0191453100    5.5452729000    0.0000000400        
[5D]
[7F]
[GTO]
  1  0
   s    12 1.00
  0.114200D+05  0.172695D-04
  0.171200D+04  0.134411D-03
  0.389300D+03  0.694561D-03
  0.110000D+03  0.278531D-02
  0.355700D+02  0.863457D-02
  0.125400D+02  0.199805D-01
  0.464400D+01  0.262908D-01
  0.129300D+01 -0.243845D-01
  0.511800D+00 -0.924934D-01
  0.178700D+00 -0.339683D+00
  0.246240D-01  0.345111D+00
  0.112530D-01  0.752750D+00
   s    10 1.00
  0.114200D+05  0.523000D-03
  0.171200D+04  0.404500D-02
  0.389300D+03  0.207750D-01
  0.110000D+03  0.807269D-01
  0.355700D+02  0.233074D+00
  0.125400D+02  0.433501D+00
  0.464400D+01  0.347472D+00
  0.129300D+01  0.412620D-01
  0.511800D+00 -0.850799D-02
  0.178700D+00  0.238400D-02
   s    10 1.00
  0.114200D+05 -0.115000D-03
  0.171200D+04 -0.895000D-03
  0.389300D+03 -0.462400D-02
  0.110000D+03 -0.185280D-01
  0.355700D+02 -0.573390D-01
  0.125400D+02 -0.132076D+00
  0.464400D+01 -0.172510D+00
  0.129300D+01  0.151814D+00
  0.511800D+00  0.599944D+00
  0.178700D+00  0.387462D+00
   s     1 1.00
  0.129300D+01  0.100000D+01
   s     1 1.00
  0.178700D+00  0.100000D+01
   p     5 1.00
  0.266300D+02  0.146700D-01
  0.594800D+01  0.917640D-01
  0.174200D+01  0.298683D+00
  0.555000D+00  0.498487D+00
  0.172500D+00  0.337023D+00
   p     1 1.00
  0.174200D+01  0.100000D+01
   p     1 1.00
  0.555000D+00  0.100000D+01
   d     1 1.00
  0.165400D+01  0.100000D+01
   d     1 1.00
  0.469000D+00  0.100000D+01
   f     1 1.00
  0.109300D+01  0.100000D+01
  
  2  0
   s    10 1.00
  0.823600D+04  0.531000D-03
  0.123500D+04  0.410800D-02
  0.280800D+03  0.210870D-01
  0.792700D+02  0.818530D-01
  0.255900D+02  0.234817D+00
  0.899700D+01  0.434401D+00
  0.331900D+01  0.346129D+00
  0.905900D+00  0.393780D-01
  0.364300D+00 -0.898300D-02
  0.128500D+00  0.238500D-02
   s    10 1.00
  0.823600D+04 -0.113000D-03
  0.123500D+04 -0.878000D-03
  0.280800D+03 -0.454000D-02
  0.792700D+02 -0.181330D-01
  0.255900D+02 -0.557600D-01
  0.899700D+01 -0.126895D+00
  0.331900D+01 -0.170352D+00
  0.905900D+00  0.140382D+00
  0.364300D+00  0.598684D+00
  0.128500D+00  0.395389D+00
   s     1 1.00
  0.905900D+00  0.100000D+01
   s     1 1.00
  0.364300D+00  0.100000D+01
   p     5 1.00
  0.187100D+02  0.140310D-01
  0.413300D+01  0.868660D-01
  0.120000D+01  0.290216D+00
  0.382700D+00  0.501008D+00
  0.120900D+00  0.343406D+00
   p     1 1.00
  0.382700D+00  0.100000D+01
   p     1 1.00
  0.120900D+00  0.100000D+01
   d     1 1.00
  0.109700D+01  0.100000D+01
   d     1 1.00
  0.318000D+00  0.100000D+01
   f     1 1.00
  0.761000D+00  0.100000D+01
  
  3  0
   s    10 1.00
  0.823600D+04  0.531000D-03
  0.123500D+04  0.410800D-02
  0.280800D+03  0.210870D-01
  0.792700D+02  0.818530D-01
  0.255900D+02  0.234817D+00
  0.899700D+01  0.434401D+00
  0.331900D+01  0.346129D+00
  0.905900D+00  0.393780D-01
  0.364300D+00 -0.898300D-02
  0.128500D+00  0.238500D-02
   s    10 1.00
  0.823600D+04 -0.113000D-03
  0.123500D+04 -0.878000D-03
  0.280800D+03 -0.454000D-02
  0.792700D+02 -0.181330D-01
  0.255900D+02 -0.557600D-01
  0.899700D+01 -0.126895D+00
  0.331900D+01 -0.170352D+00
  0.905900D+00  0.140382D+00
  0.364300D+00  0.598684D+00
  0.128500D+00  0.395389D+00
   s     1 1.00
  0.905900D+00  0.100000D+01
   s     1 1.00
  0.364300D+00  0.100000D+01
   p     5 1.00
  0.187100D+02  0.140310D-01
  0.413300D+01  0.868660D-01
  0.120000D+01  0.290216D+00
  0.382700D+00  0.501008D+00
  0.120900D+00  0.343406D+00
   p     1 1.00
  0.382700D+00  0.100000D+01
   p     1 1.00
  0.120900D+00  0.100000D+01
   d     1 1.00
  0.109700D+01  0.100000D+01
   d     1 1.00
  0.318000D+00  0.100000D+01
   f     1 1.00
  0.761000D+00  0.100000D+01
  
  4  0
   s    10 1.00
  0.823600D+04  0.531000D-03
  0.123500D+04  0.410800D-02
  0.280800D+03  0.210870D-01
  0.792700D+02  0.818530D-01
  0.255900D+02  0.234817D+00
  0.899700D+01  0.434401D+00
  0.331900D+01  0.346129D+00
  0.905900D+00  0.393780D-01
  0.364300D+00 -0.898300D-02
  0.128500D+00  0.238500D-02
   s    10 1.00
  0.823600D+04 -0.113000D-03
  0.123500D+04 -0.878000D-03
  0.280800D+03 -0.454000D-02
  0.792700D+02 -0.181330D-01
  0.255900D+02 -0.557600D-01
  0.899700D+01 -0.126895D+00
  0.331900D+01 -0.170352D+00
  0.905900D+00  0.140382D+00
  0.364300D+00  0.598684D+00
  0.128500D+00  0.395389D+00
   s     1 1.00
  0.905900D+00  0.100000D+01
   s     1 1.00
  0.364300D+00  0.100000D+01
   p     5 1.00
  0.187100D+02  0.140310D-01
  0.413300D+01  0.868660D-01
  0.120000D+01  0.290216D+00
  0.382700D+00  0.501008D+00
  0.120900D+00  0.343406D+00
   p     1 1.00
  0.382700D+00  0.100000D+01
   p     1 1.00
  0.120900D+00  0.100000D+01
   d     1 1.00
  0.109700D+01  0.100000D+01
   d     1 1.00
  0.318000D+00  0.100000D+01
   f     1 1.00
  0.761000D+00  0.100000D+01
  
  5  0
   s    10 1.00
  0.823600D+04  0.531000D-03
  0.123500D+04  0.410800D-02
  0.280800D+03  0.210870D-01
  0.792700D+02  0.818530D-01
  0.255900D+02  0.234817D+00
  0.899700D+01  0.434401D+00
  0.331900D+01  0.346129D+00
  0.905900D+00  0.393780D-01
  0.364300D+00 -0.898300D-02
  0.128500D+00  0.238500D-02
   s    10 1.00
  0.823600D+04 -0.113000D-03
  0.123500D+04 -0.878000D-03
  0.280800D+03 -0.454000D-02
  0.792700D+02 -0.181330D-01
  0.255900D+02 -0.557600D-01
  0.899700D+01 -0.126895D+00
  0.331900D+01 -0.170352D+00
  0.905900D+00  0.140382D+00
  0.364300D+00  0.598684D+00
  0.128500D+00  0.395389D+00
   s     1 1.00
  0.905900D+00  0.100000D+01
   s     1 1.00
  0.364300D+00  0.100000D+01
   p     5 1.00
  0.187100D+02  0.140310D-01
  0.413300D+01  0.868660D-01
  0.120000D+01  0.290216D+00
  0.382700D+00  0.501008D+00
  0.120900D+00  0.343406D+00
   p     1 1.00
  0.382700D+00  0.100000D+01
   p     1 1.00
  0.120900D+00  0.100000D+01
   d     1 1.00
  0.109700D+01  0.100000D+01
   d     1 1.00
  0.318000D+00  0.100000D+01
   f     1 1.00
  0.761000D+00  0.100000D+01
  
  6  0
   s    10 1.00
  0.823600D+04  0.531000D-03
  0.123500D+04  0.410800D-02
  0.280800D+03  0.210870D-01
  0.792700D+02  0.818530D-01
  0.255900D+02  0.234817D+00
  0.899700D+01  0.434401D+00
  0.331900D+01  0.346129D+00
  0.905900D+00  0.393780D-01
  0.364300D+00 -0.898300D-02
  0.128500D+00  0.238500D-02
   s    10 1.00
  0.823600D+04 -0.113000D-03
  0.123500D+04 -0.878000D-03
  0.280800D+03 -0.454000D-02
  0.792700D+02 -0.181330D-01
  0.255900D+02 -0.557600D-01
  0.899700D+01 -0.126895D+00
  0.331900D+01 -0.170352D+00
  0.905900D+00  0.140382D+00
  0.364300D+00  0.598684D+00
  0.128500D+00  0.395389D+00
   s     1 1.00
  0.905900D+00  0.100000D+01
   s     1 1.00
  0.364300D+00  0.100000D+01
   p     5 1.00
  0.187100D+02  0.140310D-01
  0.413300D+01  0.868660D-01
  0.120000D+01  0.290216D+00
  0.382700D+00  0.501008D+00
  0.120900D+00  0.343406D+00
   p     1 1.00
  0.382700D+00  0.100000D+01
   p     1 1.00
  0.120900D+00  0.100000D+01
   d     1 1.00
  0.109700D+01  0.100000D+01
   d     1 1.00
  0.318000D+00  0.100000D+01
   f     1 1.00
  0.761000D+00  0.100000D+01
  
  7  0
   s    10 1.00
  0.823600D+04  0.531000D-03
  0.123500D+04  0.410800D-02
  0.280800D+03  0.210870D-01
  0.792700D+02  0.818530D-01
  0.255900D+02  0.234817D+00
  0.899700D+01  0.434401D+00
  0.331900D+01  0.346129D+00
  0.905900D+00  0.393780D-01
  0.364300D+00 -0.898300D-02
  0.128500D+00  0.238500D-02
   s    10 1.00
  0.823600D+04 -0.113000D-03
  0.123500D+04 -0.878000D-03
  0.280800D+03 -0.454000D-02
  0.792700D+02 -0.181330D-01
  0.255900D+02 -0.557600D-01
  0.899700D+01 -0.126895D+00
  0.331900D+01 -0.170352D+00
  0.905900D+00  0.140382D+00
  0.364300D+00  0.598684D+00
  0.128500D+00  0.395389D+00
   s     1 1.00
  0.905900D+00  0.100000D+01
   s     1 1.00
  0.364300D+00  0.100000D+01
   p     5 1.00
  0.187100D+02  0.140310D-01
  0.413300D+01  0.868660D-01
  0.120000D+01  0.290216D+00
  0.382700D+00  0.501008D+00
  0.120900D+00  0.343406D+00
   p     1 1.00
  0.382700D+00  0.100000D+01
   p     1 1.00
  0.120900D+00  0.100000D+01
   d     1 1.00
  0.109700D+01  0.100000D+01
   d     1 1.00
  0.318000D+00  0.100000D+01
   f     1 1.00
  0.761000D+00  0.100000D+01
  
  8  0
   s     4 1.00
  0.130100D+02  0.196850D-01
  0.196200D+01  0.137977D+00
  0.444600D+00  0.478148D+00
  0.122000D+00  0.501240D+00
   s     1 1.00
  0.122000D+00  0.100000D+01
   p     1 1.00
  0.727000D+00  0.100000D+01
  
  9  0
   s     4 1.00
  0.130100D+02  0.196850D-01
  0.196200D+01  0.137977D+00
  0.444600D+00  0.478148D+00
  0.122000D+00  0.501240D+00
   s     1 1.00
  0.122000D+00  0.100000D+01
   p     1 1.00
  0.727000D+00  0.100000D+01
  
 10  0
   s     4 1.00
  0.130100D+02  0.196850D-01
  0.196200D+01  0.137977D+00
  0.444600D+00  0.478148D+00
  0.122000D+00  0.501240D+00
   s     1 1.00
  0.122000D+00  0.100000D+01
   p     1 1.00
  0.727000D+00  0.100000D+01
  
 11  0
   s     4 1.00
  0.130100D+02  0.196850D-01
  0.196200D+01  0.137977D+00
  0.444600D+00  0.478148D+00
  0.122000D+00  0.501240D+00
   s     1 1.00
  0.122000D+00  0.100000D+01
   p     1 1.00
  0.727000D+00  0.100000D+01
  
 12  0
   s     4 1.00
  0.130100D+02  0.196850D-01
  0.196200D+01  0.137977D+00
  0.444600D+00  0.478148D+00
  0.122000D+00  0.501240D+00
   s     1 1.00
  0.122000D+00  0.100000D+01
   p     1 1.00
  0.727000D+00  0.100000D+01
  
 13  0
   s     4 1.00
  0.130100D+02  0.196850D-01
  0.196200D+01  0.137977D+00
  0.444600D+00  0.478148D+00
  0.122000D+00  0.501240D+00
   s     1 1.00
  0.122000D+00  0.100000D+01
   p     1 1.00
  0.727000D+00  0.100000D+01
  
 14  0
   s     4 1.00
  0.130100D+02  0.196850D-01
  0.196200D+01  0.137977D+00
  0.444600D+00  0.478148D+00
  0.122000D+00  0.501240D+00
   s     1 1.00
  0.122000D+00  0.100000D+01
   p     1 1.00
  0.727000D+00  0.100000D+01
  
[MO]
 Sym= __1_A__
 Ene=  0.000000000000000E+000
 Spin= Alpha
 Occup=    2.00000000000000     
                     1  8.216991282041902E-005
                     2  0.998381109419974     
                     3 -3.886610419783834E-003
                     4  1.859091791069493E-003
                     5  6.350465259448980E-003
                     6  2.743980202091716E-003
                     7  5.497833544253902E-003
                     8 -2.440269003492246E-010
                     9 -7.271292875999207E-004
                    10 -7.046329154217855E-004
                    11  2.410139927679084E-010
                    12 -2.431567853376637E-003
                    13 -1.949054845741015E-003
                    14 -2.241784362869436E-010
                    15 -3.323074855689158E-005
                    16  5.711442125045792E-011
                    17  1.286107757644242E-011
                    18 -1.489480496677255E-004
                    19 -5.751085071768892E-005
                    20  1.229089818171788E-004
                    21 -6.672820414752664E-011
                    22 -3.514166067956565E-010
                    23 -1.600183589240971E-004
                    24  4.631243919985037E-004
                    25 -3.541663379366491E-010
                    26 -3.082692665772241E-006
                    27 -4.179816400341948E-005
                    28  2.191792514982828E-010
                    29 -2.589614972926745E-010
                    30  3.365733988534760E-005
                    31 -9.932893496422016E-005
                    32 -2.702441923248421E-004
                    33  9.972432735271210E-005
                    34  3.031129394334086E-004
                    35 -1.229053535617618E-004
                    36 -1.142411933723681E-004
                    37 -1.902573630903197E-003
                    38 -1.386808865569283E-010
                    39  3.458730147326217E-004
                    40  6.235660308228509E-005
                    41  3.388666150379419E-010
                    42 -1.917597473320585E-003
                    43  4.731483186196997E-003
                    44 -1.102727546519266E-010
                    45  1.312883249839362E-005
                    46 -1.129583035245236E-011
                    47 -4.134308345495080E-011
                    48 -9.739398821332402E-005
                    49  9.837147298998297E-006
                    50 -1.943318670345977E-004
                    51  5.250637572292022E-011
                    52 -4.002116198739219E-010
                    53 -1.332627829576772E-005
                    54  7.462912109836857E-004
                    55  1.091970651343930E-010
                    56 -6.555167247422569E-006
                    57 -7.847855967708105E-005
                    58 -2.132789043976672E-010
                    59 -2.304060525991262E-011
                    60  2.142855150654423E-005
                    61 -1.347769355566002E-004
                    62 -5.074254584666193E-004
                    63 -1.889160867022297E-003
                    64 -9.880885476650835E-005
                    65  2.132527151304356E-003
                    66 -2.949732573584614E-004
                    67 -3.538669058406827E-005
                    68 -6.601634133349206E-011
                    69  3.717030572594670E-004
                    70  8.418966907317817E-004
                    71  6.634237319340698E-011
                    72 -1.785895143905102E-003
                    73  6.399552901771885E-004
                    74  3.619764608599806E-011
                    75 -4.773555086242453E-005
                    76 -5.798641808593920E-012
                    77  1.517171166420577E-011
                    78 -4.546894670259064E-005
                    79 -2.457148161368880E-005
                    80 -1.319603184975527E-004
                    81  8.438131350436624E-011
                    82 -3.055859780669534E-011
                    83  1.221990271720805E-005
                    84 -2.440576978192192E-005
                    85  5.300177062490617E-011
                    86  9.530790641964985E-006
                    87 -4.593742293023316E-005
                    88 -7.885776630307442E-011
                    89 -1.385395503419589E-011
                    90 -2.731808330614165E-005
                    91 -1.561949089353014E-004
                    92 -1.765794436822742E-004
                    93 -5.500508599357265E-004
                    94  1.486623200240564E-004
                    95 -4.224564163147963E-005
                    96  7.524795552527421E-005
                    97 -7.962360040523179E-005
                    98 -6.216402538554747E-011
                    99  3.404145967692267E-004
                   100  3.583234508437101E-004
                   101  3.373708001569836E-011
                   102  5.867667131592896E-004
                   103 -1.627565884070599E-003
                   104 -2.271142059464753E-011
                   105 -1.406569413470841E-005
                   106  5.970197375908608E-013
                   107  1.158813462397500E-011
                   108 -3.607513262038016E-005
                   109 -1.163781760448844E-005
                   110  7.205784611798940E-005
                   111 -4.845512027856025E-011
                   112 -1.684310111790807E-011
                   113 -1.476292471111600E-004
                   114  1.120997867898576E-004
                   115  5.492025415361019E-011
                   116 -1.798083186228029E-005
                   117 -2.196310106067969E-005
                   118 -8.068259356391236E-011
                   119  3.890573694217882E-012
                   120 -7.263503259677312E-006
                   121 -4.540471966150111E-005
                   122 -2.414977177946496E-004
                   123 -6.702020661001239E-004
                   124  1.711374791681906E-004
                   125  2.829894954377379E-004
                   126 -3.991381507791853E-005
                   127 -2.114718623116997E-004
                   128 -1.249922940778125E-011
                   129  2.328877908066525E-004
                   130  6.285605918202238E-004
                   131 -1.184651637421579E-011
                   132  4.507661862487170E-004
                   133  1.841197878434515E-003
                   134  6.329132235270337E-011
                   135  1.544465591976408E-005
                   136  9.883447840072271E-012
                   137  3.719841875166215E-010
                   138  4.850451663823242E-005
                   139 -5.482526041548599E-006
                   140  1.983653512436769E-004
                   141  2.017936009767315E-011
                   142 -2.207849547104445E-010
                   143  3.851711530311394E-004
                   144  1.913764493685153E-004
                   145 -7.753614529415019E-013
                   146 -1.239275313921029E-005
                   147 -6.173301731947082E-005
                   148  2.507235517472936E-011
                   149  1.183854800677204E-011
                   150 -8.482795261150579E-006
                   151 -5.497642020729402E-005
                   152 -1.365020912043752E-004
                   153 -4.185903430143801E-004
                   154  5.647752867509182E-005
                   155  2.101427623626196E-004
                   156  6.981832209069776E-006
                   157 -2.596295451498122E-005
                   158 -2.134195430064294E-011
                   159 -1.449124962196514E-005
                   160  4.843462698606849E-005
                   161 -1.220355087217314E-011
                   162  7.190898988008550E-004
                   163 -3.251607572899813E-004
                   164  8.720092653160495E-011
                   165  1.711812253141797E-006
                   166 -1.044790150664306E-011
                   167  4.038651593334348E-010
                   168  5.108488539469748E-006
                   169  1.276926664370652E-005
                   170  1.073743367935000E-004
                   171 -3.335255430724977E-011
                   172 -2.444737905998237E-010
                   173  4.757841266728184E-005
                   174  3.691587378790038E-005
                   175  2.419055697088163E-013
                   176  4.374715646759582E-006
                   177 -1.416327943902902E-005
                   178  2.958283477803988E-011
                   179 -1.615824583104616E-011
                   180 -2.474321380294549E-005
                   181 -3.068273970100941E-005
                   182 -1.380778769256594E-004
                   183 -4.128577432927872E-004
                   184  3.139371903111639E-005
                   185  2.207658489996759E-004
                   186 -4.283439991045627E-005
                   187 -5.223249950830262E-005
                   188  3.446618955262668E-011
                   189  2.451165425428135E-004
                   190  1.091287585531237E-004
                   191 -2.338434245104532E-011
                   192  1.231773638550911E-003
                   193 -2.979572331731030E-004
                   194 -1.946388852672043E-011
                   195  4.957579241600923E-007
                   196  3.283215197929869E-013
                   197  3.314892129263854E-011
                   198 -3.004540747899866E-006
                   199  3.761271865383706E-006
                   200 -6.180961460904694E-006
                   201 -1.246385480084465E-011
                   202  8.666929273524396E-011
                   203 -6.588211992804290E-005
                   204 -1.856296547157682E-004
                   205 -4.846541555360056E-011
                   206 -8.764614994847814E-006
                   207 -3.776855696233498E-006
                   208 -3.367690885798990E-011
                   209  5.582388188659570E-012
                   210  7.652189143250066E-006
                   211 -3.789405982727539E-006
                   212 -3.044490395494487E-005
                   213  1.361088231671677E-004
                   214  1.028369760160406E-005
                   215  3.088233496248035E-005
                   216 -2.104598078164526E-012
                   217 -1.137246232961153E-003
                   218 -4.306973111213206E-004
                   219 -2.075324936908196E-004
                   220  4.166913374633756E-005
                   221 -1.633438351082885E-011
                   222 -1.623118863672719E-004
                   223 -6.698240505491761E-004
                   224  1.865042710573606E-005
                   225 -5.891923827551168E-005
                   226  1.632290556319359E-011
                   227  6.867706742570893E-005
                   228 -6.006040571550276E-004
                   229 -4.073997347181217E-005
                   230 -1.659743322630409E-005
                   231  1.477981526082095E-011
                   232  4.793157565179121E-005
                   233 -4.323890961532469E-004
                   234  1.382699930041862E-005
                   235 -3.908513115461437E-006
                   236  1.219085480874621E-011
                   237  3.177598511467363E-005
                   238 -3.599217402239767E-004
                   239 -1.003188497430110E-005
                   240 -3.831643687035510E-006
                   241  1.506542293770874E-011
                   242 -6.307823994428378E-005
                   243  7.635904233655361E-005
                   244  8.242308095572559E-008
                   245  2.800564989404865E-005
                   246 -3.871723127723073E-011
 Sym= __2_A__
 Ene=  0.000000000000000E+000
 Spin= Alpha
 Occup=    2.00000000000000     
                     1  4.943949488772507E-005
                     2  3.358832808297330E-004
                     3 -2.668522114226849E-003
                     4 -1.265412766253588E-004
                     5 -1.313537657729976E-003
                     6  2.386664690454404E-004
                     7 -2.639854112250838E-003
                     8  1.056467624954587E-010
                     9  4.116957598322795E-005
                    10  1.131958041970024E-004
                    11 -5.701170186664224E-011
                    12  5.980381804932318E-005
                    13  3.316680790272715E-004
                    14  1.017246480319996E-010
                    15 -2.950387539084650E-005
                    16 -1.621372200546619E-012
                    17 -1.233507069193606E-011
                    18  3.731434666569718E-005
                    19 -1.963722403128473E-005
                    20  1.067507321755388E-004
                    21  6.422430138078782E-012
                    22  2.032245778906259E-010
                    23 -1.358303692123123E-004
                    24  1.531477770912130E-004
                    25  1.687284361085334E-010
                    26  1.771601360225769E-005
                    27 -9.643417101547220E-005
                    28 -1.642843279773560E-010
                    29  1.668830191595802E-010
                    30  6.729385598004071E-005
                    31 -1.484378508340674E-004
                    32  -1.00090455911605     
                    33 -9.089210965050755E-003
                    34 -2.766745040985339E-003
                    35  8.053905806399291E-003
                    36  1.890115763119171E-004
                    37  3.009723367667762E-003
                    38 -1.162025003672150E-010
                    39  6.393970579514199E-005
                    40 -1.651822403829148E-004
                    41 -4.717486717387048E-011
                    42  1.161144784888027E-004
                    43 -3.950744214018684E-003
                    44  4.712281900557385E-010
                    45  5.323641867174213E-004
                    46 -4.252213911205413E-011
                    47  4.124889234547150E-011
                    48  1.959070514037756E-004
                    49 -3.478219601384177E-005
                    50 -5.480879786506052E-004
                    51 -4.179664699761601E-011
                    52  3.780336244727807E-010
                    53  6.625096578613914E-004
                    54  3.633549923741824E-004
                    55 -4.326550307263309E-011
                    56 -1.002589628953731E-005
                    57 -1.000878814955649E-004
                    58  1.064791546116381E-010
                    59  1.641188800146260E-011
                    60  2.933748142408729E-005
                    61 -3.849027672390733E-004
                    62 -1.214139561912605E-002
                    63  1.991548311317118E-003
                    64  2.431098679045810E-004
                    65 -2.713113008040428E-003
                    66 -5.739114949089908E-005
                    67 -5.735102121471485E-005
                    68  1.042887241010232E-010
                    69 -5.499504500672314E-004
                    70 -1.373562563903650E-004
                    71 -2.361992748802845E-010
                    72  2.086242537824762E-003
                    73 -2.796382575628754E-004
                    74 -4.841696547421893E-010
                    75 -3.262487299427090E-005
                    76  2.332635298755138E-011
                    77  7.208121407357060E-012
                    78  5.590221897272670E-007
                    79 -2.015389586330646E-006
                    80  4.294123181965195E-004
                    81 -2.454215932261704E-010
                    82 -1.546676645526103E-010
                    83  6.438045817152026E-004
                    84  2.580237428438698E-004
                    85 -3.245517926392713E-011
                    86 -2.724682269363835E-005
                    87  5.839690267331071E-005
                    88  3.459792256191574E-011
                    89 -2.551081343123619E-011
                    90 -3.924606063973418E-005
                    91 -1.498393087230476E-004
                    92 -1.493088104952473E-002
                    93  2.049175803035167E-003
                    94  2.980031480678804E-004
                    95 -3.160074940981002E-003
                    96 -9.714323550848130E-005
                    97 -8.347014615874620E-005
                    98  1.023584474907798E-010
                    99  9.042484000041896E-004
                   100 -4.037766765847309E-005
                   101 -2.584760365907048E-010
                   102 -1.715165085025828E-003
                   103 -1.649143288906619E-005
                   104 -4.712692865238010E-010
                   105 -2.440830093254538E-005
                   106 -1.522228907988680E-011
                   107  1.549282932103430E-011
                   108  4.340141229276192E-006
                   109 -5.056445154054737E-006
                   110  4.225369728809037E-004
                   111  2.247736427445569E-010
                   112 -2.214486635372403E-010
                   113  3.958592267709332E-004
                   114 -2.431620710882355E-004
                   115 -3.294212429888449E-011
                   116  3.060650664005069E-005
                   117  7.232833275036645E-005
                   118  4.117630202011084E-011
                   119  3.471584637709210E-011
                   120  4.179055129598062E-006
                   121 -1.325756692058559E-004
                   122  9.814849561171991E-005
                   123  6.920337447543299E-004
                   124 -2.294997991708176E-004
                   125  1.237172345794108E-004
                   126 -1.875677319936037E-006
                   127  3.496733230449135E-004
                   128 -2.428199728320724E-010
                   129  8.154873012425821E-005
                   130 -6.083589033497856E-004
                   131  6.207206442069577E-010
                   132 -3.738952640123231E-004
                   133 -8.886883586237202E-004
                   134  8.461761915311822E-010
                   135 -1.838005387642078E-005
                   136 -6.020530668657317E-011
                   137  3.615125208363206E-011
                   138 -4.597733193379522E-006
                   139 -4.248081622076490E-005
                   140 -1.298046707241534E-004
                   141  7.742691947189646E-010
                   142 -1.034893829447345E-010
                   143 -2.484701960328190E-004
                   144  1.111753057375523E-004
                   145  1.264794366592901E-010
                   146 -9.176501246552943E-006
                   147  3.714092172049612E-005
                   148  9.945363702158142E-011
                   149  8.719136641450742E-011
                   150  4.413856440978778E-005
                   151 -3.659237493584280E-005
                   152 -4.953452165370197E-005
                   153  6.693503348366141E-004
                   154 -2.315781552476974E-004
                   155  5.013163985182425E-005
                   156  3.268038097561410E-005
                   157  3.726496949342473E-004
                   158 -2.369345005884792E-010
                   159 -1.297244190352476E-004
                   160 -5.544443422114736E-004