[Molden Format]
[Atoms] AU
  N     1    7    -0.0848146300   -4.3262293700    0.0000000200        
  C     2    6     0.0383372200   -1.7995732300   -0.0000000100        
  C     3    6    -2.2898353200   -0.4086788000   -0.0000000200        
  C     4    6     2.3371326400   -0.3690043100   -0.0000000300        
  C     5    6    -2.2795523300    2.1751305700   -0.0000000100        
  C     6    6     2.2960687300    2.2167698000    0.0000000000        
  C     7    6    -0.0017863600    3.5175734300    0.0000000100        
  H     8    1    -3.3609748500   -6.5656869600    0.0000000600        
  H     9    1     1.7138854500   -5.0598135100    0.0000000000        
  H    10    1    -4.0222520800   -1.4550764900   -0.0000000400        
  H    11    1     4.1038972500   -1.3679573900   -0.0000000400        
  H    12    1    -4.0355762800    3.1923740900   -0.0000000300        
  H    13    1     4.0375312700    3.2584201900    0.0000000300        
  H    14    1    -0.0191453100    5.5452729000    0.0000000400        
[5D]
[7F]
[GTO]
  1  0
   s    12 1.00
  0.114200D+05  0.172695D-04
  0.171200D+04  0.134411D-03
  0.389300D+03  0.694561D-03
  0.110000D+03  0.278531D-02
  0.355700D+02  0.863457D-02
  0.125400D+02  0.199805D-01
  0.464400D+01  0.262908D-01
  0.129300D+01 -0.243845D-01
  0.511800D+00 -0.924934D-01
  0.178700D+00 -0.339683D+00
  0.246240D-01  0.345111D+00
  0.112530D-01  0.752750D+00
   s    10 1.00
  0.114200D+05  0.523000D-03
  0.171200D+04  0.404500D-02
  0.389300D+03  0.207750D-01
  0.110000D+03  0.807269D-01
  0.355700D+02  0.233074D+00
  0.125400D+02  0.433501D+00
  0.464400D+01  0.347472D+00
  0.129300D+01  0.412620D-01
  0.511800D+00 -0.850799D-02
  0.178700D+00  0.238400D-02
   s    10 1.00
  0.114200D+05 -0.115000D-03
  0.171200D+04 -0.895000D-03
  0.389300D+03 -0.462400D-02
  0.110000D+03 -0.185280D-01
  0.355700D+02 -0.573390D-01
  0.125400D+02 -0.132076D+00
  0.464400D+01 -0.172510D+00
  0.129300D+01  0.151814D+00
  0.511800D+00  0.599944D+00
  0.178700D+00  0.387462D+00
   s     1 1.00
  0.129300D+01  0.100000D+01
   s     1 1.00
  0.178700D+00  0.100000D+01
   p     5 1.00
  0.266300D+02  0.146700D-01
  0.594800D+01  0.917640D-01
  0.174200D+01  0.298683D+00
  0.555000D+00  0.498487D+00
  0.172500D+00  0.337023D+00
   p     1 1.00
  0.174200D+01  0.100000D+01
   p     1 1.00
  0.555000D+00  0.100000D+01
   d     1 1.00
  0.165400D+01  0.100000D+01
   d     1 1.00
  0.469000D+00  0.100000D+01
   f     1 1.00
  0.109300D+01  0.100000D+01
  
  2  0
   s    10 1.00
  0.823600D+04  0.531000D-03
  0.123500D+04  0.410800D-02
  0.280800D+03  0.210870D-01
  0.792700D+02  0.818530D-01
  0.255900D+02  0.234817D+00
  0.899700D+01  0.434401D+00
  0.331900D+01  0.346129D+00
  0.905900D+00  0.393780D-01
  0.364300D+00 -0.898300D-02
  0.128500D+00  0.238500D-02
   s    10 1.00
  0.823600D+04 -0.113000D-03
  0.123500D+04 -0.878000D-03
  0.280800D+03 -0.454000D-02
  0.792700D+02 -0.181330D-01
  0.255900D+02 -0.557600D-01
  0.899700D+01 -0.126895D+00
  0.331900D+01 -0.170352D+00
  0.905900D+00  0.140382D+00
  0.364300D+00  0.598684D+00
  0.128500D+00  0.395389D+00
   s     1 1.00
  0.905900D+00  0.100000D+01
   s     1 1.00
  0.364300D+00  0.100000D+01
   p     5 1.00
  0.187100D+02  0.140310D-01
  0.413300D+01  0.868660D-01
  0.120000D+01  0.290216D+00
  0.382700D+00  0.501008D+00
  0.120900D+00  0.343406D+00
   p     1 1.00
  0.382700D+00  0.100000D+01
   p     1 1.00
  0.120900D+00  0.100000D+01
   d     1 1.00
  0.109700D+01  0.100000D+01
   d     1 1.00
  0.318000D+00  0.100000D+01
   f     1 1.00
  0.761000D+00  0.100000D+01
  
  3  0
   s    10 1.00
  0.823600D+04  0.531000D-03
  0.123500D+04  0.410800D-02
  0.280800D+03  0.210870D-01
  0.792700D+02  0.818530D-01
  0.255900D+02  0.234817D+00
  0.899700D+01  0.434401D+00
  0.331900D+01  0.346129D+00
  0.905900D+00  0.393780D-01
  0.364300D+00 -0.898300D-02
  0.128500D+00  0.238500D-02
   s    10 1.00
  0.823600D+04 -0.113000D-03
  0.123500D+04 -0.878000D-03
  0.280800D+03 -0.454000D-02
  0.792700D+02 -0.181330D-01
  0.255900D+02 -0.557600D-01
  0.899700D+01 -0.126895D+00
  0.331900D+01 -0.170352D+00
  0.905900D+00  0.140382D+00
  0.364300D+00  0.598684D+00
  0.128500D+00  0.395389D+00
   s     1 1.00
  0.905900D+00  0.100000D+01
   s     1 1.00
  0.364300D+00  0.100000D+01
   p     5 1.00
  0.187100D+02  0.140310D-01
  0.413300D+01  0.868660D-01
  0.120000D+01  0.290216D+00
  0.382700D+00  0.501008D+00
  0.120900D+00  0.343406D+00
   p     1 1.00
  0.382700D+00  0.100000D+01
   p     1 1.00
  0.120900D+00  0.100000D+01
   d     1 1.00
  0.109700D+01  0.100000D+01
   d     1 1.00
  0.318000D+00  0.100000D+01
   f     1 1.00
  0.761000D+00  0.100000D+01
  
  4  0
   s    10 1.00
  0.823600D+04  0.531000D-03
  0.123500D+04  0.410800D-02
  0.280800D+03  0.210870D-01
  0.792700D+02  0.818530D-01
  0.255900D+02  0.234817D+00
  0.899700D+01  0.434401D+00
  0.331900D+01  0.346129D+00
  0.905900D+00  0.393780D-01
  0.364300D+00 -0.898300D-02
  0.128500D+00  0.238500D-02
   s    10 1.00
  0.823600D+04 -0.113000D-03
  0.123500D+04 -0.878000D-03
  0.280800D+03 -0.454000D-02
  0.792700D+02 -0.181330D-01
  0.255900D+02 -0.557600D-01
  0.899700D+01 -0.126895D+00
  0.331900D+01 -0.170352D+00
  0.905900D+00  0.140382D+00
  0.364300D+00  0.598684D+00
  0.128500D+00  0.395389D+00
   s     1 1.00
  0.905900D+00  0.100000D+01
   s     1 1.00
  0.364300D+00  0.100000D+01
   p     5 1.00
  0.187100D+02  0.140310D-01
  0.413300D+01  0.868660D-01
  0.120000D+01  0.290216D+00
  0.382700D+00  0.501008D+00
  0.120900D+00  0.343406D+00
   p     1 1.00
  0.382700D+00  0.100000D+01
   p     1 1.00
  0.120900D+00  0.100000D+01
   d     1 1.00
  0.109700D+01  0.100000D+01
   d     1 1.00
  0.318000D+00  0.100000D+01
   f     1 1.00
  0.761000D+00  0.100000D+01
  
  5  0
   s    10 1.00
  0.823600D+04  0.531000D-03
  0.123500D+04  0.410800D-02
  0.280800D+03  0.210870D-01
  0.792700D+02  0.818530D-01
  0.255900D+02  0.234817D+00
  0.899700D+01  0.434401D+00
  0.331900D+01  0.346129D+00
  0.905900D+00  0.393780D-01
  0.364300D+00 -0.898300D-02
  0.128500D+00  0.238500D-02
   s    10 1.00
  0.823600D+04 -0.113000D-03
  0.123500D+04 -0.878000D-03
  0.280800D+03 -0.454000D-02
  0.792700D+02 -0.181330D-01
  0.255900D+02 -0.557600D-01
  0.899700D+01 -0.126895D+00
  0.331900D+01 -0.170352D+00
  0.905900D+00  0.140382D+00
  0.364300D+00  0.598684D+00
  0.128500D+00  0.395389D+00
   s     1 1.00
  0.905900D+00  0.100000D+01
   s     1 1.00
  0.364300D+00  0.100000D+01
   p     5 1.00
  0.187100D+02  0.140310D-01
  0.413300D+01  0.868660D-01
  0.120000D+01  0.290216D+00
  0.382700D+00  0.501008D+00
  0.120900D+00  0.343406D+00
   p     1 1.00
  0.382700D+00  0.100000D+01
   p     1 1.00
  0.120900D+00  0.100000D+01
   d     1 1.00
  0.109700D+01  0.100000D+01
   d     1 1.00
  0.318000D+00  0.100000D+01
   f     1 1.00
  0.761000D+00  0.100000D+01
  
  6  0
   s    10 1.00
  0.823600D+04  0.531000D-03
  0.123500D+04  0.410800D-02
  0.280800D+03  0.210870D-01
  0.792700D+02  0.818530D-01
  0.255900D+02  0.234817D+00
  0.899700D+01  0.434401D+00
  0.331900D+01  0.346129D+00
  0.905900D+00  0.393780D-01
  0.364300D+00 -0.898300D-02
  0.128500D+00  0.238500D-02
   s    10 1.00
  0.823600D+04 -0.113000D-03
  0.123500D+04 -0.878000D-03
  0.280800D+03 -0.454000D-02
  0.792700D+02 -0.181330D-01
  0.255900D+02 -0.557600D-01
  0.899700D+01 -0.126895D+00
  0.331900D+01 -0.170352D+00
  0.905900D+00  0.140382D+00
  0.364300D+00  0.598684D+00
  0.128500D+00  0.395389D+00
   s     1 1.00
  0.905900D+00  0.100000D+01
   s     1 1.00
  0.364300D+00  0.100000D+01
   p     5 1.00
  0.187100D+02  0.140310D-01
  0.413300D+01  0.868660D-01
  0.120000D+01  0.290216D+00
  0.382700D+00  0.501008D+00
  0.120900D+00  0.343406D+00
   p     1 1.00
  0.382700D+00  0.100000D+01
   p     1 1.00
  0.120900D+00  0.100000D+01
   d     1 1.00
  0.109700D+01  0.100000D+01
   d     1 1.00
  0.318000D+00  0.100000D+01
   f     1 1.00
  0.761000D+00  0.100000D+01
  
  7  0
   s    10 1.00
  0.823600D+04  0.531000D-03
  0.123500D+04  0.410800D-02
  0.280800D+03  0.210870D-01
  0.792700D+02  0.818530D-01
  0.255900D+02  0.234817D+00
  0.899700D+01  0.434401D+00
  0.331900D+01  0.346129D+00
  0.905900D+00  0.393780D-01
  0.364300D+00 -0.898300D-02
  0.128500D+00  0.238500D-02
   s    10 1.00
  0.823600D+04 -0.113000D-03
  0.123500D+04 -0.878000D-03
  0.280800D+03 -0.454000D-02
  0.792700D+02 -0.181330D-01
  0.255900D+02 -0.557600D-01
  0.899700D+01 -0.126895D+00
  0.331900D+01 -0.170352D+00
  0.905900D+00  0.140382D+00
  0.364300D+00  0.598684D+00
  0.128500D+00  0.395389D+00
   s     1 1.00
  0.905900D+00  0.100000D+01
   s     1 1.00
  0.364300D+00  0.100000D+01
   p     5 1.00
  0.187100D+02  0.140310D-01
  0.413300D+01  0.868660D-01
  0.120000D+01  0.290216D+00
  0.382700D+00  0.501008D+00
  0.120900D+00  0.343406D+00
   p     1 1.00
  0.382700D+00  0.100000D+01
   p     1 1.00
  0.120900D+00  0.100000D+01
   d     1 1.00
  0.109700D+01  0.100000D+01
   d     1 1.00
  0.318000D+00  0.100000D+01
   f     1 1.00
  0.761000D+00  0.100000D+01
  
  8  0
   s     4 1.00
  0.130100D+02  0.196850D-01
  0.196200D+01  0.137977D+00
  0.444600D+00  0.478148D+00
  0.122000D+00  0.501240D+00
   s     1 1.00
  0.122000D+00  0.100000D+01
   p     1 1.00
  0.727000D+00  0.100000D+01
  
  9  0
   s     4 1.00
  0.130100D+02  0.196850D-01
  0.196200D+01  0.137977D+00
  0.444600D+00  0.478148D+00
  0.122000D+00  0.501240D+00
   s     1 1.00
  0.122000D+00  0.100000D+01
   p     1 1.00
  0.727000D+00  0.100000D+01
  
 10  0
   s     4 1.00
  0.130100D+02  0.196850D-01
  0.196200D+01  0.137977D+00
  0.444600D+00  0.478148D+00
  0.122000D+00  0.501240D+00
   s     1 1.00
  0.122000D+00  0.100000D+01
   p     1 1.00
  0.727000D+00  0.100000D+01
  
 11  0
   s     4 1.00
  0.130100D+02  0.196850D-01
  0.196200D+01  0.137977D+00
  0.444600D+00  0.478148D+00
  0.122000D+00  0.501240D+00
   s     1 1.00
  0.122000D+00  0.100000D+01
   p     1 1.00
  0.727000D+00  0.100000D+01
  
 12  0
   s     4 1.00
  0.130100D+02  0.196850D-01
  0.196200D+01  0.137977D+00
  0.444600D+00  0.478148D+00
  0.122000D+00  0.501240D+00
   s     1 1.00
  0.122000D+00  0.100000D+01
   p     1 1.00
  0.727000D+00  0.100000D+01
  
 13  0
   s     4 1.00
  0.130100D+02  0.196850D-01
  0.196200D+01  0.137977D+00
  0.444600D+00  0.478148D+00
  0.122000D+00  0.501240D+00
   s     1 1.00
  0.122000D+00  0.100000D+01
   p     1 1.00
  0.727000D+00  0.100000D+01
  
 14  0
   s     4 1.00
  0.130100D+02  0.196850D-01
  0.196200D+01  0.137977D+00
  0.444600D+00  0.478148D+00
  0.122000D+00  0.501240D+00
   s     1 1.00
  0.122000D+00  0.100000D+01
   p     1 1.00
  0.727000D+00  0.100000D+01
  
[MO]
 Sym= __1_a__
 Ene=  0.000000000000000E+000
 Spin= Alpha
 Occup=    2.00000000000000     
                     1  8.216991282049490E-005
                     2  0.998381109419974     
                     3 -3.886610419780820E-003
                     4  1.859091791069370E-003
                     5  6.350465259447850E-003
                     6  2.743980202098530E-003
                     7  5.497833544258580E-003
                     8 -2.440269003490150E-010
                     9 -7.271292875997670E-004
                    10 -7.046329154215740E-004
                    11  2.410139927678100E-010
                    12 -2.431567853376740E-003
                    13 -1.949054845740690E-003
                    14 -2.241784362866050E-010
                    15 -3.323074855700235E-005
                    16  5.711442125050280E-011
                    17  1.286107757640980E-011
                    18 -1.489480496677760E-004
                    19 -5.751085071738650E-005
                    20  1.229089818168774E-004
                    21 -6.672820414788749E-011
                    22 -3.514166067951890E-010
                    23 -1.600183589246252E-004
                    24  4.631243919998200E-004
                    25 -3.541663379374960E-010
                    26 -3.082692665851328E-006
                    27 -4.179816400354985E-005
                    28  2.191792514964300E-010
                    29 -2.589614972955690E-010
                    30  3.365733988555153E-005
                    31 -9.932893496426396E-005
                    32 -2.702441923812290E-004
                    33  9.972432738405050E-005
                    34  3.031129394330710E-004
                    35 -1.229053535633110E-004
                    36 -1.142411933284520E-004
                    37 -1.902573630897180E-003
                    38 -1.386808865566090E-010
                    39  3.458730147318000E-004
                    40  6.235660308304800E-005
                    41  3.388666150371650E-010
                    42 -1.917597473330790E-003
                    43  4.731483186197690E-003
                    44 -1.102727546518800E-010
                    45  1.312883249794345E-005
                    46 -1.129583035253790E-011
                    47 -4.134308345492150E-011
                    48 -9.739398821301839E-005
                    49  9.837147300253771E-006
                    50 -1.943318670356599E-004
                    51  5.250637572327290E-011
                    52 -4.002116198734970E-010
                    53 -1.332627829560106E-005
                    54  7.462912109862540E-004
                    55  1.091970651341457E-010
                    56 -6.555167247808733E-006
                    57 -7.847855967717516E-005
                    58 -2.132789043974480E-010
                    59 -2.304060526085820E-011
                    60  2.142855150671819E-005
                    61 -1.347769355561160E-004
                    62 -5.074254584663680E-004
                    63 -1.889160867015070E-003
                    64 -9.880885476643190E-005
                    65  2.132527151305160E-003
                    66 -2.949732573838100E-004
                    67 -3.538669058178020E-005
                    68 -6.601634133376111E-011
                    69  3.717030572624270E-004
                    70  8.418966907338710E-004
                    71  6.634237319310500E-011
                    72 -1.785895143908030E-003
                    73  6.399552901780720E-004
                    74  3.619764608628860E-011
                    75 -4.773555086261076E-005
                    76 -5.798641808653570E-012
                    77  1.517171166423970E-011
                    78 -4.546894670238580E-005
                    79 -2.457148161272110E-005
                    80 -1.319603184975423E-004
                    81  8.438131350429600E-011
                    82 -3.055859780667290E-011
                    83  1.221990271653576E-005
                    84 -2.440576978269930E-005
                    85  5.300177062482895E-011
                    86  9.530790642068543E-006
                    87 -4.593742293036162E-005
                    88 -7.885776630321880E-011
                    89 -1.385395503427480E-011
                    90 -2.731808330631249E-005
                    91 -1.561949089354289E-004
                    92 -1.765794436801430E-004
                    93 -5.500508599173930E-004
                    94  1.486623200239130E-004
                    95 -4.224564163284450E-005
                    96  7.524795548427831E-005
                    97 -7.962360042518329E-005
                    98 -6.216402538518880E-011
                    99  3.404145967730410E-004
                   100  3.583234508452880E-004
                   101  3.373708001517390E-011
                   102  5.867667131665290E-004
                   103 -1.627565884065260E-003
                   104 -2.271142059504220E-011
                   105 -1.406569413501914E-005
                   106  5.970197375223560E-013
                   107  1.158813462398920E-011
                   108 -3.607513262007820E-005
                   109 -1.163781760296920E-005
                   110  7.205784611721100E-005
                   111 -4.845512027874810E-011
                   112 -1.684310111899430E-011
                   113 -1.476292471113426E-004
                   114  1.120997867905200E-004
                   115  5.492025415362130E-011
                   116 -1.798083186199734E-005
                   117 -2.196310106047028E-005
                   118 -8.068259356357341E-011
                   119  3.890573694322640E-012
                   120 -7.263503259868196E-006
                   121 -4.540471966189612E-005
                   122 -2.414977177944670E-004
                   123 -6.702020661009421E-004
                   124  1.711374791684980E-004
                   125  2.829894954374220E-004
                   126 -3.991381507117620E-005
                   127 -2.114718623162080E-004
                   128 -1.249922940755980E-011
                   129  2.328877908066030E-004
                   130  6.285605918218620E-004
                   131 -1.184651637419460E-011
                   132  4.507661862514700E-004
                   133  1.841197878438980E-003
                   134  6.329132235247271E-011
                   135  1.544465591977818E-005
                   136  9.883447840063779E-012
                   137  3.719841875166550E-010
                   138  4.850451663800940E-005
                   139 -5.482526040937590E-006
                   140  1.983653512436060E-004
                   141  2.017936009780320E-011
                   142 -2.207849547105280E-010
                   143  3.851711530321100E-004
                   144  1.913764493682430E-004
                   145 -7.753614529327508E-013
                   146 -1.239275313923064E-005
                   147 -6.173301731947562E-005
                   148  2.507235517474420E-011
                   149  1.183854800678000E-011
                   150 -8.482795261238184E-006
                   151 -5.497642020731224E-005
                   152 -1.365020912052920E-004
                   153 -4.185903430229920E-004
                   154  5.647752867540610E-005
                   155  2.101427623633580E-004
                   156  6.981832217039860E-006
                   157 -2.596295450963440E-005
                   158 -2.134195430053070E-011
                   159 -1.449124962274290E-005
                   160  4.843462698587870E-005
                   161 -1.220355087123870E-011
                   162  7.190898988023540E-004
                   163 -3.251607572892170E-004
                   164  8.720092653194920E-011
                   165  1.711812253266341E-006
                   166 -1.044790150664570E-011
                   167  4.038651593334430E-010
                   168  5.108488539664100E-006
                   169  1.276926664455610E-005
                   170  1.073743367937508E-004
                   171 -3.335255430730180E-011
                   172 -2.444737906006090E-010
                   173  4.757841266719460E-005
                   174  3.691587378844820E-005
                   175  2.419055698713600E-013
                   176  4.374715646732225E-006
                   177 -1.416327943907911E-005
                   178  2.958283477788060E-011
                   179 -1.615824583107570E-011
                   180 -2.474321380314777E-005
                   181 -3.068273970111711E-005
                   182 -1.380778769258410E-004
                   183 -4.128577432975270E-004
                   184  3.139371903126570E-005
                   185  2.207658490007480E-004
                   186 -4.283439991953380E-005
                   187 -5.223249950680690E-005
                   188  3.446618955274300E-011
                   189  2.451165425430920E-004
                   190  1.091287585532580E-004
                   191 -2.338434245115060E-011
                   192  1.231773638553410E-003
                   193 -2.979572331730580E-004
                   194 -1.946388852668630E-011
                   195  4.957579242172544E-007
                   196  3.283215198025290E-013
                   197  3.314892129260080E-011
                   198 -3.004540747943380E-006
                   199  3.761271865686650E-006
                   200 -6.180961460948016E-006
                   201 -1.246385480084600E-011
                   202  8.666929273549350E-011
                   203 -6.588211992813621E-005
                   204 -1.856296547156570E-004
                   205 -4.846541555362873E-011
                   206 -8.764614994794297E-006
                   207 -3.776855696255463E-006
                   208 -3.367690885799980E-011
                   209  5.582388188718460E-012
                   210  7.652189143308760E-006
                   211 -3.789405982724524E-006
                   212 -3.044490395472660E-005
                   213  1.361088231681720E-004
                   214  1.028369760165660E-005
                   215  3.088233496257510E-005
                   216 -2.104598078182480E-012
                   217 -1.137246232958470E-003
                   218 -4.306973111242440E-004
                   219 -2.075324936911800E-004
                   220  4.166913374671010E-005
                   221 -1.633438351070660E-011
                   222 -1.623118863393220E-004
                   223 -6.698240505603630E-004
                   224  1.865042710694320E-005
                   225 -5.891923827449480E-005
                   226  1.632290556327600E-011
                   227  6.867706740488660E-005
                   228 -6.006040571520420E-004
                   229 -4.073997347122880E-005
                   230 -1.659743322716990E-005
                   231  1.477981526072760E-011
                   232  4.793157564055400E-005
                   233 -4.323890961514290E-004
                   234  1.382699929994530E-005
                   235 -3.908513115256040E-006
                   236  1.219085480877300E-011
                   237  3.177598512521260E-005
                   238 -3.599217402269640E-004
                   239 -1.003188497463690E-005
                   240 -3.831643687135140E-006
                   241  1.506542293772830E-011
                   242 -6.307823994435970E-005
                   243  7.635904233571649E-005
                   244  8.242308086530590E-008
                   245  2.800564989415150E-005
                   246 -3.871723127729520E-011
 Sym= __2_a__
 Ene=  0.000000000000000E+000
 Spin= Alpha
 Occup=    2.00000000000000     
                     1  4.943949488607060E-005
                     2  3.358832807776200E-004
                     3 -2.668522114217450E-003
                     4 -1.265412766259110E-004
                     5 -1.313537657743230E-003
                     6  2.386664690376950E-004
                     7 -2.639854112251750E-003
                     8  1.056467624248660E-010
                     9  4.116957598552590E-005
                    10  1.131958041975760E-004
                    11 -5.701170182446520E-011
                    12  5.980381804616320E-005
                    13  3.316680790293850E-004
                    14  1.017246480099230E-010
                    15 -2.950387539122197E-005
                    16 -1.621372198051350E-012
                    17 -1.233507068554200E-011
                    18  3.731434666572420E-005
                    19 -1.963722403128950E-005
                    20  1.067507321779848E-004
                    21  6.422430123798220E-012
                    22  2.032245778193940E-010
                    23 -1.358303692152694E-004
                    24  1.531477770878860E-004
                    25  1.687284360239175E-010
                    26  1.771601360260812E-005
                    27 -9.643417101475854E-005
                    28 -1.642843279389826E-010
                    29  1.668830190908060E-010
                    30  6.729385597933015E-005
                    31 -1.484378508349724E-004
                    32  -1.00090455911642     
                    33 -9.089210965051711E-003
                    34 -2.766745040996980E-003
                    35  8.053905806469201E-003
                    36  1.890115762892320E-004
                    37  3.009723367686340E-003
                    38 -1.162025003961550E-010
                    39  6.393970581420911E-005
                    40 -1.651822403691170E-004
                    41 -4.717486709771330E-011
                    42  1.161144784788200E-004
                    43 -3.950744214032300E-003
                    44  4.712281900482740E-010
                    45  5.323641867177375E-004
                    46 -4.252213911564270E-011
                    47  4.124889233030830E-011
                    48  1.959070514037254E-004
                    49 -3.478219601306360E-005
                    50 -5.480879786627662E-004
                    51 -4.179664697408530E-011
                    52  3.780336244002850E-010
                    53  6.625096578840280E-004
                    54  3.633549923678360E-004
                    55 -4.326550303989172E-011
                    56 -1.002589628799049E-005
                    57 -1.000878814952958E-004
                    58  1.064791545697974E-010
                    59  1.641188798979180E-011
                    60  2.933748142408409E-005
                    61 -3.849027672414100E-004
                    62 -1.214139561784940E-002
                    63  1.991548311314440E-003
                    64  2.431098679135890E-004
                    65 -2.713113008060270E-003
                    66 -5.739114946055500E-005
                    67 -5.735102125221510E-005
                    68  1.042887240961520E-010
                    69 -5.499504500793800E-004
                    70 -1.373562563806330E-004
                    71 -2.361992748654300E-010
                    72  2.086242537816210E-003
                    73 -2.796382575455220E-004
                    74 -4.841696547163300E-010
                    75 -3.262487299428954E-005
                    76  2.332635298407500E-011
                    77  7.208121407544760E-012
                    78  5.590221898428380E-007
                    79 -2.015389587453830E-006
                    80  4.294123181991386E-004
                    81 -2.454215932088330E-010
                    82 -1.546676645501620E-010
                    83  6.438045817203460E-004
                    84  2.580237428516390E-004
                    85 -3.245517926513419E-011
                    86 -2.724682269341162E-005
                    87  5.839690267340172E-005
                    88  3.459792255609080E-011
                    89 -2.551081343307840E-011
                    90 -3.924606063938134E-005
                    91 -1.498393087239559E-004
                    92 -1.493088102807330E-002
                    93  2.049175803206510E-003
                    94  2.980031481353620E-004
                    95 -3.160074941167880E-003
                    96 -9.714323552480250E-005
                    97 -8.347014614474190E-005
                    98  1.023584474944590E-010
                    99  9.042484000224550E-004
                   100 -4.037766765280030E-005
                   101 -2.584760365880200E-010
                   102 -1.715165085038670E-003
                   103 -1.649143287983200E-005
                   104 -4.712692865053300E-010
                   105 -2.440830094114239E-005
                   106 -1.522228907958870E-011
                   107  1.549282931742840E-011
                   108  4.340141226081260E-006
                   109 -5.056445152633670E-006
                   110  4.225369728927623E-004
                   111  2.247736427377210E-010
                   112 -2.214486635122660E-010
                   113  3.958592267842000E-004
                   114 -2.431620711147500E-004
                   115 -3.294212429993580E-011
                   116  3.060650663785921E-005
                   117  7.232833275031180E-005
                   118  4.117630201733760E-011
                   119  3.471584637680320E-011
                   120  4.179055129880294E-006
                   121 -1.325756692114376E-004
                   122  9.814849562828210E-005
                   123  6.920337447166950E-004
                   124 -2.294997991713210E-004
                   125  1.237172346032890E-004
                   126 -1.875677323389190E-006
                   127  3.496733230737990E-004
                   128 -2.428199728260300E-010
                   129  8.154873012272880E-005
                   130 -6.083589033524230E-004
                   131  6.207206441903760E-010
                   132 -3.738952640227560E-004
                   133 -8.886883586219790E-004
                   134  8.461761915054430E-010
                   135 -1.838005387604086E-005
                   136 -6.020530668517250E-011
                   137  3.615125208335250E-011
                   138 -4.597733192476940E-006
                   139 -4.248081622129410E-005
                   140 -1.298046707248045E-004
                   141  7.742691946993920E-010
                   142 -1.034893829413560E-010
                   143 -2.484701960339700E-004
                   144  1.111753057402090E-004
                   145  1.264794366562740E-010
                   146 -9.176501246342316E-006
                   147  3.714092171999692E-005
                   148  9.945363702054580E-011
                   149  8.719136641153850E-011
                   150  4.413856440994120E-005
                   151 -3.659237493589318E-005
                   152 -4.953452103441510E-005
                   153  6.693503348235780E-004
                   154 -2.315781552543970E-004
                   155  5.013163991602050E-005
                   156  3.268038098617340E-005
                   157  3.726496949140360E-004
                   158 -2.369345005795460E-010
                   159 -1.297244190405140E-004
                   160 -5.544443422209720E-004