[Molden Format]
[Atoms] AU
  N     1    7    -4.5084635900   -0.0988418000   -0.4118517900        
  C     2    6    -1.7501841200   -0.0760954600   -0.1792120000        
  C     3    6    -0.3509749300    0.2171160000   -2.3788961800        
  C     4    6    -0.4805707700   -0.3034055100    2.1190733700        
  C     5    6     2.2663504200    0.2748705600   -2.2873080400        
  C     6    6     2.1302949200   -0.2419847400    2.2011925500        
  C     7    6     3.5098980000    0.0470240900   -0.0036732100        
  H     8    1    -5.0672997700   -1.7856028500    0.4303730600        
  H     9    1    -5.1151307500    1.1337689700    0.9747743100        
  H    10    1    -1.3291721100    0.4012481700   -4.1417569500        
  H    11    1    -1.5421008800   -0.5301805100    3.8328713100        
  H    12    1     3.3288733500    0.5028577800   -3.9999547600        
  H    13    1     3.0874337800   -0.4213468200    3.9815229400        
  H    14    1     5.5371969800    0.0943149200    0.0638119900        
[5D]
[7F]
[GTO]
  1  0
   s    12 1.00
  0.114200D+05  0.172695D-04
  0.171200D+04  0.134411D-03
  0.389300D+03  0.694561D-03
  0.110000D+03  0.278531D-02
  0.355700D+02  0.863457D-02
  0.125400D+02  0.199805D-01
  0.464400D+01  0.262908D-01
  0.129300D+01 -0.243845D-01
  0.511800D+00 -0.924934D-01
  0.178700D+00 -0.339683D+00
  0.246240D-01  0.345111D+00
  0.112530D-01  0.752750D+00
   s    10 1.00
  0.114200D+05  0.523000D-03
  0.171200D+04  0.404500D-02
  0.389300D+03  0.207750D-01
  0.110000D+03  0.807269D-01
  0.355700D+02  0.233074D+00
  0.125400D+02  0.433501D+00
  0.464400D+01  0.347472D+00
  0.129300D+01  0.412620D-01
  0.511800D+00 -0.850799D-02
  0.178700D+00  0.238400D-02
   s    10 1.00
  0.114200D+05 -0.115000D-03
  0.171200D+04 -0.895000D-03
  0.389300D+03 -0.462400D-02
  0.110000D+03 -0.185280D-01
  0.355700D+02 -0.573390D-01
  0.125400D+02 -0.132076D+00
  0.464400D+01 -0.172510D+00
  0.129300D+01  0.151814D+00
  0.511800D+00  0.599944D+00
  0.178700D+00  0.387462D+00
   s     1 1.00
  0.129300D+01  0.100000D+01
   s     1 1.00
  0.178700D+00  0.100000D+01
   p     5 1.00
  0.266300D+02  0.146700D-01
  0.594800D+01  0.917640D-01
  0.174200D+01  0.298683D+00
  0.555000D+00  0.498487D+00
  0.172500D+00  0.337023D+00
   p     1 1.00
  0.174200D+01  0.100000D+01
   p     1 1.00
  0.555000D+00  0.100000D+01
   d     1 1.00
  0.165400D+01  0.100000D+01
   d     1 1.00
  0.469000D+00  0.100000D+01
   f     1 1.00
  0.109300D+01  0.100000D+01
  
  2  0
   s    10 1.00
  0.823600D+04  0.531000D-03
  0.123500D+04  0.410800D-02
  0.280800D+03  0.210870D-01
  0.792700D+02  0.818530D-01
  0.255900D+02  0.234817D+00
  0.899700D+01  0.434401D+00
  0.331900D+01  0.346129D+00
  0.905900D+00  0.393780D-01
  0.364300D+00 -0.898300D-02
  0.128500D+00  0.238500D-02
   s    10 1.00
  0.823600D+04 -0.113000D-03
  0.123500D+04 -0.878000D-03
  0.280800D+03 -0.454000D-02
  0.792700D+02 -0.181330D-01
  0.255900D+02 -0.557600D-01
  0.899700D+01 -0.126895D+00
  0.331900D+01 -0.170352D+00
  0.905900D+00  0.140382D+00
  0.364300D+00  0.598684D+00
  0.128500D+00  0.395389D+00
   s     1 1.00
  0.905900D+00  0.100000D+01
   s     1 1.00
  0.364300D+00  0.100000D+01
   p     5 1.00
  0.187100D+02  0.140310D-01
  0.413300D+01  0.868660D-01
  0.120000D+01  0.290216D+00
  0.382700D+00  0.501008D+00
  0.120900D+00  0.343406D+00
   p     1 1.00
  0.382700D+00  0.100000D+01
   p     1 1.00
  0.120900D+00  0.100000D+01
   d     1 1.00
  0.109700D+01  0.100000D+01
   d     1 1.00
  0.318000D+00  0.100000D+01
   f     1 1.00
  0.761000D+00  0.100000D+01
  
  3  0
   s    10 1.00
  0.823600D+04  0.531000D-03
  0.123500D+04  0.410800D-02
  0.280800D+03  0.210870D-01
  0.792700D+02  0.818530D-01
  0.255900D+02  0.234817D+00
  0.899700D+01  0.434401D+00
  0.331900D+01  0.346129D+00
  0.905900D+00  0.393780D-01
  0.364300D+00 -0.898300D-02
  0.128500D+00  0.238500D-02
   s    10 1.00
  0.823600D+04 -0.113000D-03
  0.123500D+04 -0.878000D-03
  0.280800D+03 -0.454000D-02
  0.792700D+02 -0.181330D-01
  0.255900D+02 -0.557600D-01
  0.899700D+01 -0.126895D+00
  0.331900D+01 -0.170352D+00
  0.905900D+00  0.140382D+00
  0.364300D+00  0.598684D+00
  0.128500D+00  0.395389D+00
   s     1 1.00
  0.905900D+00  0.100000D+01
   s     1 1.00
  0.364300D+00  0.100000D+01
   p     5 1.00
  0.187100D+02  0.140310D-01
  0.413300D+01  0.868660D-01
  0.120000D+01  0.290216D+00
  0.382700D+00  0.501008D+00
  0.120900D+00  0.343406D+00
   p     1 1.00
  0.382700D+00  0.100000D+01
   p     1 1.00
  0.120900D+00  0.100000D+01
   d     1 1.00
  0.109700D+01  0.100000D+01
   d     1 1.00
  0.318000D+00  0.100000D+01
   f     1 1.00
  0.761000D+00  0.100000D+01
  
  4  0
   s    10 1.00
  0.823600D+04  0.531000D-03
  0.123500D+04  0.410800D-02
  0.280800D+03  0.210870D-01
  0.792700D+02  0.818530D-01
  0.255900D+02  0.234817D+00
  0.899700D+01  0.434401D+00
  0.331900D+01  0.346129D+00
  0.905900D+00  0.393780D-01
  0.364300D+00 -0.898300D-02
  0.128500D+00  0.238500D-02
   s    10 1.00
  0.823600D+04 -0.113000D-03
  0.123500D+04 -0.878000D-03
  0.280800D+03 -0.454000D-02
  0.792700D+02 -0.181330D-01
  0.255900D+02 -0.557600D-01
  0.899700D+01 -0.126895D+00
  0.331900D+01 -0.170352D+00
  0.905900D+00  0.140382D+00
  0.364300D+00  0.598684D+00
  0.128500D+00  0.395389D+00
   s     1 1.00
  0.905900D+00  0.100000D+01
   s     1 1.00
  0.364300D+00  0.100000D+01
   p     5 1.00
  0.187100D+02  0.140310D-01
  0.413300D+01  0.868660D-01
  0.120000D+01  0.290216D+00
  0.382700D+00  0.501008D+00
  0.120900D+00  0.343406D+00
   p     1 1.00
  0.382700D+00  0.100000D+01
   p     1 1.00
  0.120900D+00  0.100000D+01
   d     1 1.00
  0.109700D+01  0.100000D+01
   d     1 1.00
  0.318000D+00  0.100000D+01
   f     1 1.00
  0.761000D+00  0.100000D+01
  
  5  0
   s    10 1.00
  0.823600D+04  0.531000D-03
  0.123500D+04  0.410800D-02
  0.280800D+03  0.210870D-01
  0.792700D+02  0.818530D-01
  0.255900D+02  0.234817D+00
  0.899700D+01  0.434401D+00
  0.331900D+01  0.346129D+00
  0.905900D+00  0.393780D-01
  0.364300D+00 -0.898300D-02
  0.128500D+00  0.238500D-02
   s    10 1.00
  0.823600D+04 -0.113000D-03
  0.123500D+04 -0.878000D-03
  0.280800D+03 -0.454000D-02
  0.792700D+02 -0.181330D-01
  0.255900D+02 -0.557600D-01
  0.899700D+01 -0.126895D+00
  0.331900D+01 -0.170352D+00
  0.905900D+00  0.140382D+00
  0.364300D+00  0.598684D+00
  0.128500D+00  0.395389D+00
   s     1 1.00
  0.905900D+00  0.100000D+01
   s     1 1.00
  0.364300D+00  0.100000D+01
   p     5 1.00
  0.187100D+02  0.140310D-01
  0.413300D+01  0.868660D-01
  0.120000D+01  0.290216D+00
  0.382700D+00  0.501008D+00
  0.120900D+00  0.343406D+00
   p     1 1.00
  0.382700D+00  0.100000D+01
   p     1 1.00
  0.120900D+00  0.100000D+01
   d     1 1.00
  0.109700D+01  0.100000D+01
   d     1 1.00
  0.318000D+00  0.100000D+01
   f     1 1.00
  0.761000D+00  0.100000D+01
  
  6  0
   s    10 1.00
  0.823600D+04  0.531000D-03
  0.123500D+04  0.410800D-02
  0.280800D+03  0.210870D-01
  0.792700D+02  0.818530D-01
  0.255900D+02  0.234817D+00
  0.899700D+01  0.434401D+00
  0.331900D+01  0.346129D+00
  0.905900D+00  0.393780D-01
  0.364300D+00 -0.898300D-02
  0.128500D+00  0.238500D-02
   s    10 1.00
  0.823600D+04 -0.113000D-03
  0.123500D+04 -0.878000D-03
  0.280800D+03 -0.454000D-02
  0.792700D+02 -0.181330D-01
  0.255900D+02 -0.557600D-01
  0.899700D+01 -0.126895D+00
  0.331900D+01 -0.170352D+00
  0.905900D+00  0.140382D+00
  0.364300D+00  0.598684D+00
  0.128500D+00  0.395389D+00
   s     1 1.00
  0.905900D+00  0.100000D+01
   s     1 1.00
  0.364300D+00  0.100000D+01
   p     5 1.00
  0.187100D+02  0.140310D-01
  0.413300D+01  0.868660D-01
  0.120000D+01  0.290216D+00
  0.382700D+00  0.501008D+00
  0.120900D+00  0.343406D+00
   p     1 1.00
  0.382700D+00  0.100000D+01
   p     1 1.00
  0.120900D+00  0.100000D+01
   d     1 1.00
  0.109700D+01  0.100000D+01
   d     1 1.00
  0.318000D+00  0.100000D+01
   f     1 1.00
  0.761000D+00  0.100000D+01
  
  7  0
   s    10 1.00
  0.823600D+04  0.531000D-03
  0.123500D+04  0.410800D-02
  0.280800D+03  0.210870D-01
  0.792700D+02  0.818530D-01
  0.255900D+02  0.234817D+00
  0.899700D+01  0.434401D+00
  0.331900D+01  0.346129D+00
  0.905900D+00  0.393780D-01
  0.364300D+00 -0.898300D-02
  0.128500D+00  0.238500D-02
   s    10 1.00
  0.823600D+04 -0.113000D-03
  0.123500D+04 -0.878000D-03
  0.280800D+03 -0.454000D-02
  0.792700D+02 -0.181330D-01
  0.255900D+02 -0.557600D-01
  0.899700D+01 -0.126895D+00
  0.331900D+01 -0.170352D+00
  0.905900D+00  0.140382D+00
  0.364300D+00  0.598684D+00
  0.128500D+00  0.395389D+00
   s     1 1.00
  0.905900D+00  0.100000D+01
   s     1 1.00
  0.364300D+00  0.100000D+01
   p     5 1.00
  0.187100D+02  0.140310D-01
  0.413300D+01  0.868660D-01
  0.120000D+01  0.290216D+00
  0.382700D+00  0.501008D+00
  0.120900D+00  0.343406D+00
   p     1 1.00
  0.382700D+00  0.100000D+01
   p     1 1.00
  0.120900D+00  0.100000D+01
   d     1 1.00
  0.109700D+01  0.100000D+01
   d     1 1.00
  0.318000D+00  0.100000D+01
   f     1 1.00
  0.761000D+00  0.100000D+01
  
  8  0
   s     4 1.00
  0.130100D+02  0.196850D-01
  0.196200D+01  0.137977D+00
  0.444600D+00  0.478148D+00
  0.122000D+00  0.501240D+00
   s     1 1.00
  0.122000D+00  0.100000D+01
   p     1 1.00
  0.727000D+00  0.100000D+01
  
  9  0
   s     4 1.00
  0.130100D+02  0.196850D-01
  0.196200D+01  0.137977D+00
  0.444600D+00  0.478148D+00
  0.122000D+00  0.501240D+00
   s     1 1.00
  0.122000D+00  0.100000D+01
   p     1 1.00
  0.727000D+00  0.100000D+01
  
 10  0
   s     4 1.00
  0.130100D+02  0.196850D-01
  0.196200D+01  0.137977D+00
  0.444600D+00  0.478148D+00
  0.122000D+00  0.501240D+00
   s     1 1.00
  0.122000D+00  0.100000D+01
   p     1 1.00
  0.727000D+00  0.100000D+01
  
 11  0
   s     4 1.00
  0.130100D+02  0.196850D-01
  0.196200D+01  0.137977D+00
  0.444600D+00  0.478148D+00
  0.122000D+00  0.501240D+00
   s     1 1.00
  0.122000D+00  0.100000D+01
   p     1 1.00
  0.727000D+00  0.100000D+01
  
 12  0
   s     4 1.00
  0.130100D+02  0.196850D-01
  0.196200D+01  0.137977D+00
  0.444600D+00  0.478148D+00
  0.122000D+00  0.501240D+00
   s     1 1.00
  0.122000D+00  0.100000D+01
   p     1 1.00
  0.727000D+00  0.100000D+01
  
 13  0
   s     4 1.00
  0.130100D+02  0.196850D-01
  0.196200D+01  0.137977D+00
  0.444600D+00  0.478148D+00
  0.122000D+00  0.501240D+00
   s     1 1.00
  0.122000D+00  0.100000D+01
   p     1 1.00
  0.727000D+00  0.100000D+01
  
 14  0
   s     4 1.00
  0.130100D+02  0.196850D-01
  0.196200D+01  0.137977D+00
  0.444600D+00  0.478148D+00
  0.122000D+00  0.501240D+00
   s     1 1.00
  0.122000D+00  0.100000D+01
   p     1 1.00
  0.727000D+00  0.100000D+01
  
[MO]
 Sym= __1_A__
 Ene=   1.00000000000000     
 Spin= Alpha
 Occup=    1.00000000000000     
                     1 -6.518576578952922E-004
                     2  0.997687556677060     
                     3 -3.519116994461807E-002
                     4  2.111383996999589E-003
                     5  4.911200264923957E-003
                     6  1.356484019393071E-002
                     7 -3.915134018946774E-003
                     8  2.681451555873679E-002
                     9 -1.306323894509092E-003
                    10  3.093985353216714E-004
                    11 -1.949135319333002E-003
                    12 -3.666596944319908E-003
                    13  8.787953593372732E-004
                    14 -5.523709750461882E-003
                    15  1.813589839159137E-004
                    16  8.101076558067801E-005
                    17 -4.274508894005288E-005
                    18  5.250087443531760E-005
                    19 -2.895299459054166E-005
                    20  7.294759158318939E-004
                    21  6.792654111201317E-004
                    22 -2.085136842556929E-004
                    23  5.667426733474198E-005
                    24 -1.422268448648400E-004
                    25  2.533048965954988E-005
                    26 -5.967633684752085E-005
                    27  5.777497359645487E-006
                    28  2.813863389577262E-005
                    29  2.414885050182688E-005
                    30  5.232400618860567E-005
                    31 -1.602535678477389E-005
                    32 -5.159813308927735E-004
                    33  3.601800011983110E-004
                    34  2.144833353010596E-004
                    35  1.565501480048085E-004
                    36  8.245496708935608E-004
                    37 -7.659515197201142E-004
                    38 -9.483095454597293E-004
                    39 -7.457317282933502E-004
                    40 -2.250398257450742E-005
                    41  7.828354138520236E-005
                    42  2.945770185368458E-003
                    43  9.167150333989849E-005
                    44 -6.778994844388963E-004
                    45  4.204466879887825E-005
                    46 -3.645664720799424E-004
                    47 -6.594936879068023E-006
                    48 -5.827230100033472E-005
                    49  4.537796166070393E-005
                    50 -1.517233624764722E-004
                    51 -3.722856063393664E-004
                    52  2.373361401926416E-005
                    53  9.356398844635856E-005
                    54  4.007689932366293E-005
                    55  1.180337976485799E-004
                    56  3.809290081480948E-007
                    57  4.941479042187265E-006
                    58  1.189499189409430E-004
                    59 -4.630467777571820E-006
                    60 -3.608046903285428E-005
                    61 -2.229608818141964E-005
                    62 -7.440066855766562E-004
                    63  5.175007220066529E-004
                    64 -1.161095117178026E-004
                    65  2.604611076637246E-003
                    66 -3.611791240841288E-003
                    67 -5.626593400277582E-004
                    68  6.941232646656251E-004
                    69  5.551879194279358E-004
                    70 -3.063780051583532E-005
                    71  3.867892802974321E-004
                    72  8.026972294454959E-004
                    73  3.778963480798669E-004
                    74 -2.335264457657956E-003
                    75  1.219058635248609E-004
                    76 -5.994255565255897E-005
                    77 -4.222228108363209E-005
                    78  4.293061864103504E-006
                    79  1.618407051920015E-005
                    80 -2.982531587035817E-005
                    81 -2.872261557409318E-004
                    82 -1.326401255290403E-005
                    83 -8.929234889351725E-006
                    84  4.635638944098956E-005
                    85 -2.131830180079132E-005
                    86 -1.392394541432473E-004
                    87 -1.182820651868018E-005
                    88 -1.296008651394188E-005
                    89  2.010164053457181E-005
                    90 -7.101639091582662E-005
                    91  2.643744147525854E-006
                    92  2.444857802387664E-005
                    93 -1.240515604994042E-003
                    94  2.459517017396865E-004
                    95 -8.185266508761376E-004
                    96  5.379073584473744E-005
                    97 -4.252479660700634E-004
                    98  1.157883109111277E-003
                    99 -4.942381602317432E-005
                   100 -6.515499219604874E-006
                   101  1.475827996964322E-005
                   102 -1.029182019014035E-003
                   103  1.234776887429540E-004
                   104 -6.182821731077587E-004
                   105 -6.124250103473172E-005
                   106  2.598971067243088E-006
                   107  1.900227373712612E-005
                   108  5.734542668588086E-005
                   109  1.089896085201730E-005
                   110  1.273525365991885E-004
                   111  3.653563533756423E-004
                   112  1.461120325017148E-005
                   113 -1.321945610256570E-004
                   114 -4.527366286726732E-005
                   115 -3.473909149538822E-005
                   116 -2.440541161359692E-006
                   117 -7.080272089398325E-006
                   118 -2.601551484621660E-005
                   119 -3.077157247312121E-006
                   120  1.284011589844317E-005
                   121 -1.258099739961979E-006
                   122 -2.684759387778351E-004
                   123 -1.896637242024878E-003
                   124  1.441480080577651E-004
                   125  4.826733905027042E-004
                   126  1.821197592224056E-003
                   127  6.202599390484194E-005
                   128 -1.628361888309147E-004
                   129  3.958727338114715E-004
                   130 -2.312459270000955E-005
                   131  2.930680114869085E-004
                   132  3.239672238854808E-004
                   133 -8.590043377332476E-005
                   134  9.114696367302036E-004
                   135  6.810587389921909E-005
                   136 -2.027578925811658E-005
                   137 -5.027634148895438E-006
                   138 -6.332779708419408E-005
                   139  6.248249378781884E-006
                   140  1.942680680209160E-004
                   141  5.548770234823454E-005
                   142 -4.377403535692115E-006
                   143 -2.541190299639064E-004
                   144 -4.495278778180868E-006
                   145 -4.348730388173474E-006
                   146 -3.337614080236127E-005
                   147 -4.577910131187217E-006
                   148  1.994123644577715E-005
                   149 -9.540702419825608E-007
                   150 -7.462783766748311E-005
                   151  1.341766725415019E-006
                   152 -1.040613856308869E-004
                   153 -6.795095157810688E-005
                   154 -7.357796586562011E-005
                   155  7.851033290340741E-004
                   156  2.883228522063856E-004
                   157  3.622558721135195E-005
                   158  1.769446060195134E-004
                   159 -3.616181672499792E-004
                   160  1.906918019533337E-006
                   161 -6.716013842877250E-005
                   162  2.127817933328791E-004
                   163 -9.466708819412303E-005
                   164  9.978689271040756E-004
                   165  1.677012751022245E-006
                   166 -1.374839418539867E-005
                   167 -4.736086664668691E-006
                   168  2.036840630605930E-005
                   169  8.669297021146540E-006
                   170 -7.646748013142455E-005
                   171  9.465307573732457E-006
                   172  2.552582608038337E-005
                   173 -1.105349005725029E-004
                   174 -1.247535543016953E-006
                   175  5.613739404263262E-006
                   176 -1.719034856760537E-005
                   177  7.738527806277216E-007
                   178  4.194806556518964E-006
                   179  3.364335717850510E-007
                   180 -6.318574375256572E-006
                   181  4.186654540061113E-007
                   182 -1.054016974778766E-004
                   183 -9.954285429434656E-005
                   184  2.427072300800099E-005
                   185  2.193813772246884E-004
                   186 -2.546524401520730E-004
                   187  1.620395434700027E-004
                   188 -1.212612895843653E-004
                   189  1.306285343643080E-004
                   190 -3.542737511089046E-005
                   191  3.448191355202019E-004
                   192 -4.290560102438394E-004
                   193 -2.423463265497831E-005
                   194  3.381381072511520E-004
                   195  2.838130252228181E-005
                   196 -1.544716259697662E-005
                   197 -3.796638777509257E-006
                   198 -1.342859714256453E-005
                   199  8.878771848104948E-007
                   200 -2.120050958576454E-005
                   201 -1.686238173051290E-004
                   202  4.177751709892075E-006
                   203 -1.440358906919456E-005
                   204  1.587770057728945E-005
                   205 -2.714012152377401E-006
                   206  5.706218887447317E-006
                   207 -1.089655044759055E-006
                   208  8.213716866040910E-006
                   209 -1.820414790351310E-006
                   210 -4.972974282113994E-006
                   211 -3.292660927781045E-007
                   212 -3.633843653236921E-003
                   213  2.231642146534004E-003
                   214  1.320919548951510E-004
                   215 -2.398901046017636E-004
                   216  4.276140705104933E-004
                   217 -2.422073017851932E-003
                   218  1.871219028955230E-003
                   219  1.470492779746680E-004
                   220  5.993670361501450E-005
                   221  4.427705986232832E-004
                   222  1.856971985309424E-003
                   223 -2.102265666624168E-003
                   224  1.495025974246504E-005
                   225 -2.260954830403637E-005
                   226  1.349645733583352E-004
                   227  2.518596768802356E-004
                   228  4.121345471470125E-004
                   229 -5.694535872034600E-005
                   230  4.895661035232118E-006
                   231 -1.003723336644490E-004
                   232  8.021790292570549E-004
                   233  2.371106143394395E-004
                   234  4.947215954207513E-006
                   235 -4.052244809811803E-006
                   236  4.346901287561187E-005
                   237  2.177370305700489E-004
                   238 -8.009932567461912E-004
                   239 -4.262617773234802E-005
                   240  4.239298343326434E-006
                   241 -2.548559214086941E-005
                   242 -3.435332126164324E-004
                   243  2.444162835382610E-004
                   244  3.091391057189597E-005
                   245  5.115712187408827E-006
                   246 -4.197996611757071E-006
 Sym= __2_A__
 Ene=   2.00000000000000     
 Spin= Alpha
 Occup=    1.00000000000000     
                     1 -5.610278746061525E-005
                     2  1.551965375837242E-004
                     3 -1.486236952176486E-003
                     4 -8.693544788609925E-006
                     5  1.017385063312530E-003
                     6  1.541519469510817E-003
                     7 -2.333309626835724E-004
                     8  1.433677457989873E-003
                     9 -1.608932329629148E-004
                    10  3.889595094128187E-005
                    11 -1.574292980511821E-004
                    12  1.458859450970941E-004
                    13  5.157309669238031E-005
                    14 -1.672480700720268E-004
                    15 -4.115427034402218E-005
                    16  3.302991962145905E-005
                    17  1.895844913166344E-006
                    18  4.994918114974326E-005
                    19 -2.582271786574357E-006
                    20  8.447415073084595E-005
                    21 -6.074773276986842E-005
                    22 -2.672280631093344E-005
                    23  8.935964660999449E-005
                    24 -8.588057233266129E-007
                    25 -3.374746117074672E-005
                    26  1.274102523188470E-004
                    27  9.603789004317641E-006
                    28 -6.184745299244047E-005
                    29 -1.040395322802862E-005
                    30  1.194009283118414E-004
                    31  4.370960841442790E-006
                    32   1.00083652844536     
                    33  8.408973331411541E-003
                    34  2.859639727072074E-003
                    35 -8.436687883280950E-003
                    36 -1.075617887110388E-003
                    37 -6.750592203193371E-005
                    38  1.219948681514232E-004
                    39  7.943150542650728E-004
                    40  5.881887990872752E-005
                    41 -4.961944288688128E-004
                    42  2.350703592227454E-003
                    43 -1.876119874701858E-005
                    44  4.836587305076493E-004
                    45  3.294228776582554E-004
                    46 -2.557792919188242E-005
                    47 -9.947355591284146E-005
                    48  2.976382330285718E-004
                    49  1.796357648032211E-005
                    50 -1.023546754143277E-003
                    51 -4.333808015272368E-004
                    52  2.106734050130677E-004
                    53 -1.240493481142046E-004
                    54  4.602516005400430E-005
                    55 -2.118350757331057E-005
                    56  2.519509067826786E-004
                    57  4.647340397056783E-006
                    58 -3.115663899812776E-005
                    59 -3.890903152088476E-005
                    60  6.412532153335867E-005
                    61  5.124027821281438E-007
                    62  1.623068854786945E-002
                    63 -1.246000139540082E-003
                    64 -2.883980153723867E-004
                    65  2.712723251369035E-003
                    66 -5.245477858106863E-004
                    67 -9.367071401204826E-005
                    68  5.037674999230069E-004
                    69  2.661172797879193E-005
                    70 -3.044483198405933E-005
                    71  2.534536714413992E-004
                    72  1.393118039040513E-004
                    73  2.227047808701136E-004
                    74 -1.777511289209017E-003
                    75  2.152550740403740E-005
                    76  2.585856354718642E-005
                    77  1.174512941118856E-006
                    78 -5.282490837701834E-005
                    79 -4.993150881029644E-006
                    80 -5.787959361905047E-004
                    81 -3.945997152306690E-004
                    82  1.241385652928564E-005
                    83  8.161386452493560E-004
                    84  8.861550289457648E-005
                    85  3.392907740962655E-005
                    86  1.060171076123239E-004
                    87  1.880516393099306E-005
                    88 -3.143813962489584E-005
                    89 -2.541377049750069E-005
                    90 -2.614548921058087E-005
                    91  6.777705880540022E-006
                    92  1.896026288873485E-002
                    93 -1.736562769332576E-003
                    94 -3.476401098970537E-004
                    95  3.433691369435912E-003
                    96 -2.989224985193878E-004
                    97  1.258947265865050E-005
                    98 -3.248455679253993E-004
                    99 -1.387200723535149E-004
                   100  8.963383051478501E-005
                   101 -8.326785666321614E-004
                   102  4.424839160104822E-004
                   103 -1.463874922407471E-004
                   104  1.471113815732532E-003
                   105  1.122103721530630E-005
                   106 -1.094759810922123E-006
                   107  1.245813213361536E-006
                   108 -2.181537098110850E-005
                   109 -4.024349098268592E-007
                   110 -1.339870588246091E-004
                   111  5.491781314323866E-004
                   112 -2.978896484313225E-005
                   113  6.124725334272024E-004
                   114 -3.182837927976284E-005
                   115 -4.430234139065824E-005
                   116  7.866731561725356E-005
                   117 -1.322945866372285E-005
                   118  1.606925496014016E-005
                   119 -1.671171436903349E-005
                   120 -2.774146425888266E-005
                   121 -3.271124115257963E-007
                   122 -3.611399497113334E-005
                   123 -7.829103520299729E-004
                   124  2.465719157979088E-004
                   125 -4.514473738249520E-004
                   126  4.488669923611414E-005
                   127  9.795096990461090E-006
                   128 -6.207153272552736E-005
                   129  6.201727107920633E-004
                   130  9.657782660844809E-006
                   131  5.896542868959230E-005
                   132  1.584808155641268E-004
                   133 -4.655518387376526E-005
                   134  4.245310693431820E-004
                   135  3.550433981977554E-006
                   136  3.419009303245804E-005
                   137  5.341751511345879E-006
                   138 -4.252491418299132E-005
                   139 -5.906568282797209E-006
                   140  1.842258650105945E-004
                   141 -3.148038312777160E-004
                   142 -2.063619749753875E-005
                   143 -2.148243597266720E-004
                   144  2.621523671906243E-005
                   145 -5.536341047804776E-006
                   146  1.050539929397397E-005
                   147 -1.509800667933206E-006
                   148  1.493962795748656E-006
                   149 -4.337384964670078E-006
                   150 -1.847975482971938E-005
                   151  1.290505648078435E-006
                   152  6.788798809133303E-005
                   153 -7.791429129730571E-004
                   154  2.277405373508115E-004
                   155 -1.192539834264670E-004
                   156 -4.784024154583097E-005
                   157 -3.939108868490982E-006
                   158  5.344099142347187E-005
                   159  4.687103985432162E-004
                   160  1.671306342642092E-005