[Molden Format]
[Atoms] AU
  N     1    7    -0.0005437000   -4.2969785200    0.0000000000        
  C     2    6     0.0032892300   -1.7794205500    0.0000000000        
  C     3    6    -2.3359441400   -0.4122149200    0.0000000000        
  C     4    6     2.3411791900   -0.4081684900    0.0000000000        
  C     5    6    -2.2989415000    2.1634042600    0.0000000000        
  C     6    6     2.2990680600    2.1673544300    0.0000000000        
  C     7    6    -0.0011597500    3.4779837600    0.0000000000        
  H     8    1    -1.7819600900   -5.3682133600    0.0000000000        
  H     9    1     1.6375785000   -5.3397164800    0.0000000000        
  H    10    1    -4.0708253000   -1.4467305700    0.0000000000        
  H    11    1     4.0786953200   -1.4385474100    0.0000000000        
  H    12    1    -4.0429815400    3.1934101200    0.0000000000        
  H    13    1     4.0405149300    3.2013912400    0.0000000000        
  H    14    1    -0.0027505600    5.5045380000    0.0000000000        
[5D]
[7F]
[GTO]
  1  0
   s    12 1.00
  0.114200D+05  0.172695D-04
  0.171200D+04  0.134411D-03
  0.389300D+03  0.694561D-03
  0.110000D+03  0.278531D-02
  0.355700D+02  0.863457D-02
  0.125400D+02  0.199805D-01
  0.464400D+01  0.262908D-01
  0.129300D+01 -0.243845D-01
  0.511800D+00 -0.924934D-01
  0.178700D+00 -0.339683D+00
  0.246240D-01  0.345111D+00
  0.112530D-01  0.752750D+00
   s    10 1.00
  0.114200D+05  0.523000D-03
  0.171200D+04  0.404500D-02
  0.389300D+03  0.207750D-01
  0.110000D+03  0.807269D-01
  0.355700D+02  0.233074D+00
  0.125400D+02  0.433501D+00
  0.464400D+01  0.347472D+00
  0.129300D+01  0.412620D-01
  0.511800D+00 -0.850799D-02
  0.178700D+00  0.238400D-02
   s    10 1.00
  0.114200D+05 -0.115000D-03
  0.171200D+04 -0.895000D-03
  0.389300D+03 -0.462400D-02
  0.110000D+03 -0.185280D-01
  0.355700D+02 -0.573390D-01
  0.125400D+02 -0.132076D+00
  0.464400D+01 -0.172510D+00
  0.129300D+01  0.151814D+00
  0.511800D+00  0.599944D+00
  0.178700D+00  0.387462D+00
   s     1 1.00
  0.129300D+01  0.100000D+01
   s     1 1.00
  0.178700D+00  0.100000D+01
   p     5 1.00
  0.266300D+02  0.146700D-01
  0.594800D+01  0.917640D-01
  0.174200D+01  0.298683D+00
  0.555000D+00  0.498487D+00
  0.172500D+00  0.337023D+00
   p     1 1.00
  0.174200D+01  0.100000D+01
   p     1 1.00
  0.555000D+00  0.100000D+01
   d     1 1.00
  0.165400D+01  0.100000D+01
   d     1 1.00
  0.469000D+00  0.100000D+01
   f     1 1.00
  0.109300D+01  0.100000D+01
  
  2  0
   s    10 1.00
  0.823600D+04  0.531000D-03
  0.123500D+04  0.410800D-02
  0.280800D+03  0.210870D-01
  0.792700D+02  0.818530D-01
  0.255900D+02  0.234817D+00
  0.899700D+01  0.434401D+00
  0.331900D+01  0.346129D+00
  0.905900D+00  0.393780D-01
  0.364300D+00 -0.898300D-02
  0.128500D+00  0.238500D-02
   s    10 1.00
  0.823600D+04 -0.113000D-03
  0.123500D+04 -0.878000D-03
  0.280800D+03 -0.454000D-02
  0.792700D+02 -0.181330D-01
  0.255900D+02 -0.557600D-01
  0.899700D+01 -0.126895D+00
  0.331900D+01 -0.170352D+00
  0.905900D+00  0.140382D+00
  0.364300D+00  0.598684D+00
  0.128500D+00  0.395389D+00
   s     1 1.00
  0.905900D+00  0.100000D+01
   s     1 1.00
  0.364300D+00  0.100000D+01
   p     5 1.00
  0.187100D+02  0.140310D-01
  0.413300D+01  0.868660D-01
  0.120000D+01  0.290216D+00
  0.382700D+00  0.501008D+00
  0.120900D+00  0.343406D+00
   p     1 1.00
  0.382700D+00  0.100000D+01
   p     1 1.00
  0.120900D+00  0.100000D+01
   d     1 1.00
  0.109700D+01  0.100000D+01
   d     1 1.00
  0.318000D+00  0.100000D+01
   f     1 1.00
  0.761000D+00  0.100000D+01
  
  3  0
   s    10 1.00
  0.823600D+04  0.531000D-03
  0.123500D+04  0.410800D-02
  0.280800D+03  0.210870D-01
  0.792700D+02  0.818530D-01
  0.255900D+02  0.234817D+00
  0.899700D+01  0.434401D+00
  0.331900D+01  0.346129D+00
  0.905900D+00  0.393780D-01
  0.364300D+00 -0.898300D-02
  0.128500D+00  0.238500D-02
   s    10 1.00
  0.823600D+04 -0.113000D-03
  0.123500D+04 -0.878000D-03
  0.280800D+03 -0.454000D-02
  0.792700D+02 -0.181330D-01
  0.255900D+02 -0.557600D-01
  0.899700D+01 -0.126895D+00
  0.331900D+01 -0.170352D+00
  0.905900D+00  0.140382D+00
  0.364300D+00  0.598684D+00
  0.128500D+00  0.395389D+00
   s     1 1.00
  0.905900D+00  0.100000D+01
   s     1 1.00
  0.364300D+00  0.100000D+01
   p     5 1.00
  0.187100D+02  0.140310D-01
  0.413300D+01  0.868660D-01
  0.120000D+01  0.290216D+00
  0.382700D+00  0.501008D+00
  0.120900D+00  0.343406D+00
   p     1 1.00
  0.382700D+00  0.100000D+01
   p     1 1.00
  0.120900D+00  0.100000D+01
   d     1 1.00
  0.109700D+01  0.100000D+01
   d     1 1.00
  0.318000D+00  0.100000D+01
   f     1 1.00
  0.761000D+00  0.100000D+01
  
  4  0
   s    10 1.00
  0.823600D+04  0.531000D-03
  0.123500D+04  0.410800D-02
  0.280800D+03  0.210870D-01
  0.792700D+02  0.818530D-01
  0.255900D+02  0.234817D+00
  0.899700D+01  0.434401D+00
  0.331900D+01  0.346129D+00
  0.905900D+00  0.393780D-01
  0.364300D+00 -0.898300D-02
  0.128500D+00  0.238500D-02
   s    10 1.00
  0.823600D+04 -0.113000D-03
  0.123500D+04 -0.878000D-03
  0.280800D+03 -0.454000D-02
  0.792700D+02 -0.181330D-01
  0.255900D+02 -0.557600D-01
  0.899700D+01 -0.126895D+00
  0.331900D+01 -0.170352D+00
  0.905900D+00  0.140382D+00
  0.364300D+00  0.598684D+00
  0.128500D+00  0.395389D+00
   s     1 1.00
  0.905900D+00  0.100000D+01
   s     1 1.00
  0.364300D+00  0.100000D+01
   p     5 1.00
  0.187100D+02  0.140310D-01
  0.413300D+01  0.868660D-01
  0.120000D+01  0.290216D+00
  0.382700D+00  0.501008D+00
  0.120900D+00  0.343406D+00
   p     1 1.00
  0.382700D+00  0.100000D+01
   p     1 1.00
  0.120900D+00  0.100000D+01
   d     1 1.00
  0.109700D+01  0.100000D+01
   d     1 1.00
  0.318000D+00  0.100000D+01
   f     1 1.00
  0.761000D+00  0.100000D+01
  
  5  0
   s    10 1.00
  0.823600D+04  0.531000D-03
  0.123500D+04  0.410800D-02
  0.280800D+03  0.210870D-01
  0.792700D+02  0.818530D-01
  0.255900D+02  0.234817D+00
  0.899700D+01  0.434401D+00
  0.331900D+01  0.346129D+00
  0.905900D+00  0.393780D-01
  0.364300D+00 -0.898300D-02
  0.128500D+00  0.238500D-02
   s    10 1.00
  0.823600D+04 -0.113000D-03
  0.123500D+04 -0.878000D-03
  0.280800D+03 -0.454000D-02
  0.792700D+02 -0.181330D-01
  0.255900D+02 -0.557600D-01
  0.899700D+01 -0.126895D+00
  0.331900D+01 -0.170352D+00
  0.905900D+00  0.140382D+00
  0.364300D+00  0.598684D+00
  0.128500D+00  0.395389D+00
   s     1 1.00
  0.905900D+00  0.100000D+01
   s     1 1.00
  0.364300D+00  0.100000D+01
   p     5 1.00
  0.187100D+02  0.140310D-01
  0.413300D+01  0.868660D-01
  0.120000D+01  0.290216D+00
  0.382700D+00  0.501008D+00
  0.120900D+00  0.343406D+00
   p     1 1.00
  0.382700D+00  0.100000D+01
   p     1 1.00
  0.120900D+00  0.100000D+01
   d     1 1.00
  0.109700D+01  0.100000D+01
   d     1 1.00
  0.318000D+00  0.100000D+01
   f     1 1.00
  0.761000D+00  0.100000D+01
  
  6  0
   s    10 1.00
  0.823600D+04  0.531000D-03
  0.123500D+04  0.410800D-02
  0.280800D+03  0.210870D-01
  0.792700D+02  0.818530D-01
  0.255900D+02  0.234817D+00
  0.899700D+01  0.434401D+00
  0.331900D+01  0.346129D+00
  0.905900D+00  0.393780D-01
  0.364300D+00 -0.898300D-02
  0.128500D+00  0.238500D-02
   s    10 1.00
  0.823600D+04 -0.113000D-03
  0.123500D+04 -0.878000D-03
  0.280800D+03 -0.454000D-02
  0.792700D+02 -0.181330D-01
  0.255900D+02 -0.557600D-01
  0.899700D+01 -0.126895D+00
  0.331900D+01 -0.170352D+00
  0.905900D+00  0.140382D+00
  0.364300D+00  0.598684D+00
  0.128500D+00  0.395389D+00
   s     1 1.00
  0.905900D+00  0.100000D+01
   s     1 1.00
  0.364300D+00  0.100000D+01
   p     5 1.00
  0.187100D+02  0.140310D-01
  0.413300D+01  0.868660D-01
  0.120000D+01  0.290216D+00
  0.382700D+00  0.501008D+00
  0.120900D+00  0.343406D+00
   p     1 1.00
  0.382700D+00  0.100000D+01
   p     1 1.00
  0.120900D+00  0.100000D+01
   d     1 1.00
  0.109700D+01  0.100000D+01
   d     1 1.00
  0.318000D+00  0.100000D+01
   f     1 1.00
  0.761000D+00  0.100000D+01
  
  7  0
   s    10 1.00
  0.823600D+04  0.531000D-03
  0.123500D+04  0.410800D-02
  0.280800D+03  0.210870D-01
  0.792700D+02  0.818530D-01
  0.255900D+02  0.234817D+00
  0.899700D+01  0.434401D+00
  0.331900D+01  0.346129D+00
  0.905900D+00  0.393780D-01
  0.364300D+00 -0.898300D-02
  0.128500D+00  0.238500D-02
   s    10 1.00
  0.823600D+04 -0.113000D-03
  0.123500D+04 -0.878000D-03
  0.280800D+03 -0.454000D-02
  0.792700D+02 -0.181330D-01
  0.255900D+02 -0.557600D-01
  0.899700D+01 -0.126895D+00
  0.331900D+01 -0.170352D+00
  0.905900D+00  0.140382D+00
  0.364300D+00  0.598684D+00
  0.128500D+00  0.395389D+00
   s     1 1.00
  0.905900D+00  0.100000D+01
   s     1 1.00
  0.364300D+00  0.100000D+01
   p     5 1.00
  0.187100D+02  0.140310D-01
  0.413300D+01  0.868660D-01
  0.120000D+01  0.290216D+00
  0.382700D+00  0.501008D+00
  0.120900D+00  0.343406D+00
   p     1 1.00
  0.382700D+00  0.100000D+01
   p     1 1.00
  0.120900D+00  0.100000D+01
   d     1 1.00
  0.109700D+01  0.100000D+01
   d     1 1.00
  0.318000D+00  0.100000D+01
   f     1 1.00
  0.761000D+00  0.100000D+01
  
  8  0
   s     4 1.00
  0.130100D+02  0.196850D-01
  0.196200D+01  0.137977D+00
  0.444600D+00  0.478148D+00
  0.122000D+00  0.501240D+00
   s     1 1.00
  0.122000D+00  0.100000D+01
   p     1 1.00
  0.727000D+00  0.100000D+01
  
  9  0
   s     4 1.00
  0.130100D+02  0.196850D-01
  0.196200D+01  0.137977D+00
  0.444600D+00  0.478148D+00
  0.122000D+00  0.501240D+00
   s     1 1.00
  0.122000D+00  0.100000D+01
   p     1 1.00
  0.727000D+00  0.100000D+01
  
 10  0
   s     4 1.00
  0.130100D+02  0.196850D-01
  0.196200D+01  0.137977D+00
  0.444600D+00  0.478148D+00
  0.122000D+00  0.501240D+00
   s     1 1.00
  0.122000D+00  0.100000D+01
   p     1 1.00
  0.727000D+00  0.100000D+01
  
 11  0
   s     4 1.00
  0.130100D+02  0.196850D-01
  0.196200D+01  0.137977D+00
  0.444600D+00  0.478148D+00
  0.122000D+00  0.501240D+00
   s     1 1.00
  0.122000D+00  0.100000D+01
   p     1 1.00
  0.727000D+00  0.100000D+01
  
 12  0
   s     4 1.00
  0.130100D+02  0.196850D-01
  0.196200D+01  0.137977D+00
  0.444600D+00  0.478148D+00
  0.122000D+00  0.501240D+00
   s     1 1.00
  0.122000D+00  0.100000D+01
   p     1 1.00
  0.727000D+00  0.100000D+01
  
 13  0
   s     4 1.00
  0.130100D+02  0.196850D-01
  0.196200D+01  0.137977D+00
  0.444600D+00  0.478148D+00
  0.122000D+00  0.501240D+00
   s     1 1.00
  0.122000D+00  0.100000D+01
   p     1 1.00
  0.727000D+00  0.100000D+01
  
 14  0
   s     4 1.00
  0.130100D+02  0.196850D-01
  0.196200D+01  0.137977D+00
  0.444600D+00  0.478148D+00
  0.122000D+00  0.501240D+00
   s     1 1.00
  0.122000D+00  0.100000D+01
   p     1 1.00
  0.727000D+00  0.100000D+01
  
[MO]
 Sym= __1_A'_
 Ene=  0.000000000000000E+000
 Spin= Alpha
 Occup=    2.00000000000000     
                     1  2.981067738754093E-005
                     2  0.998184683567960     
                     3  8.494415704050573E-003
                     4  1.958036195256598E-003
                     5  1.754113041605472E-003
                     6  1.502646546200959E-004
                     7  4.540559329068682E-003
                     8  0.000000000000000E+000
                     9  6.986861856007117E-005
                    10 -9.535752573043105E-005
                    11  0.000000000000000E+000
                    12  1.323284473051810E-005
                    13 -1.703455656505464E-004
                    14  0.000000000000000E+000
                    15 -2.030735534021101E-004
                    16  0.000000000000000E+000
                    17  0.000000000000000E+000
                    18 -1.913949652400331E-004
                    19 -3.963312307436410E-005
                    20  4.236340366214396E-004
                    21  0.000000000000000E+000
                    22  0.000000000000000E+000
                    23 -4.017827026179788E-004
                    24  1.142519729958755E-005
                    25  0.000000000000000E+000
                    26 -1.649071494180074E-005
                    27 -5.023069049909761E-005
                    28  0.000000000000000E+000
                    29  0.000000000000000E+000
                    30  4.446047474391514E-006
                    31 -1.698921545308401E-004
                    32 -3.553157653957094E-004
                    33  2.631839688841250E-003
                    34  1.321632605909949E-004
                    35 -2.154020064370776E-004
                    36 -1.473496149226748E-005
                    37 -6.862502190949021E-003
                    38  0.000000000000000E+000
                    39 -1.853932086482169E-005
                    40  3.076357669392675E-004
                    41  0.000000000000000E+000
                    42 -3.845643906310743E-005
                    43  4.479244392952364E-003
                    44  0.000000000000000E+000
                    45 -5.515094994083495E-005
                    46  0.000000000000000E+000
                    47  0.000000000000000E+000
                    48 -3.645884623986278E-004
                    49 -6.458800255623402E-006
                    50 -4.193418150845762E-004
                    51  0.000000000000000E+000
                    52  0.000000000000000E+000
                    53  1.334323824436900E-004
                    54  8.775204570539350E-006
                    55  0.000000000000000E+000
                    56  1.356546171867044E-006
                    57 -4.785602266364317E-006
                    58  0.000000000000000E+000
                    59  0.000000000000000E+000
                    60  3.005426784390824E-006
                    61 -1.240520568487845E-004
                    62 -2.049274251917774E-004
                    63 -1.594352036989702E-003
                    64  5.730373657271731E-005
                    65  5.540566374836765E-004
                    66 -8.037157697126974E-004
                    67  9.453634871387375E-004
                    68  0.000000000000000E+000
                    69 -3.135419537605877E-005
                    70  6.081473945879104E-004
                    71  0.000000000000000E+000
                    72 -6.490454528106520E-004
                    73 -1.079146886515882E-004
                    74  0.000000000000000E+000
                    75 -1.059992420433760E-005
                    76  0.000000000000000E+000
                    77  0.000000000000000E+000
                    78 -9.661306538557698E-005
                    79 -7.096948056442047E-006
                    80 -1.038084209054772E-005
                    81  0.000000000000000E+000
                    82  0.000000000000000E+000
                    83  2.463291174083206E-005
                    84  1.908362909838775E-004
                    85  0.000000000000000E+000
                    86  2.057747410884307E-005
                    87 -4.228220547256067E-005
                    88  0.000000000000000E+000
                    89  0.000000000000000E+000
                    90 -2.688876939865166E-005
                    91 -8.456061126084588E-005
                    92 -2.199119068861946E-004
                    93 -1.690557123876828E-003
                    94  5.739483057252423E-005
                    95  5.838409840217610E-004
                    96  8.328030537661084E-004
                    97  9.914429552470570E-004
                    98  0.000000000000000E+000
                    99  2.972355403663868E-005
                   100  6.083258114569667E-004
                   101  0.000000000000000E+000
                   102  5.679422081993574E-004
                   103 -2.258962833278183E-004
                   104  0.000000000000000E+000
                   105 -9.720919891613286E-006
                   106  0.000000000000000E+000
                   107  0.000000000000000E+000
                   108 -9.957543592270347E-005
                   109  6.400643766694762E-006
                   110 -2.112278102220674E-005
                   111  0.000000000000000E+000
                   112  0.000000000000000E+000
                   113  1.973824815286436E-005
                   114 -1.795951740522959E-004
                   115  0.000000000000000E+000
                   116 -1.876438627121500E-005
                   117 -4.036158970590970E-005
                   118  0.000000000000000E+000
                   119  0.000000000000000E+000
                   120  2.242459449133507E-005
                   121 -8.625705627356870E-005
                   122 -1.470476465640941E-004
                   123 -1.759929912693046E-005
                   124  1.072200191261565E-004
                   125  1.405446385122224E-004
                   126  3.755988827722776E-005
                   127 -7.605749322387238E-004
                   128  0.000000000000000E+000
                   129  3.470808068113813E-005
                   130  3.502795147767668E-004
                   131  0.000000000000000E+000
                   132 -1.420398385947735E-004
                   133  7.640050646379042E-004
                   134  0.000000000000000E+000
                   135  9.441696396968534E-006
                   136  0.000000000000000E+000
                   137  0.000000000000000E+000
                   138  1.456901946614311E-005
                   139  1.074269922405135E-006
                   140  1.049102079254642E-004
                   141  0.000000000000000E+000
                   142  0.000000000000000E+000
                   143  1.610318528522569E-004
                   144  1.659548360531186E-004
                   145  0.000000000000000E+000
                   146 -4.438008512635681E-006
                   147 -3.198044154690143E-005
                   148  0.000000000000000E+000
                   149  0.000000000000000E+000
                   150  1.435565009092091E-006
                   151 -2.429001167885253E-005
                   152 -1.484232112372405E-004
                   153 -7.181583258035203E-006
                   154  1.112974962866247E-004
                   155  1.291078060153134E-004
                   156 -3.806679553398553E-005
                   157 -7.779502013415015E-004
                   158  0.000000000000000E+000
                   159 -3.261746003540889E-005
                   160  3.504428467516429E-004
                   161  0.000000000000000E+000
                   162  2.169721552142496E-004
                   163  6.711890968734888E-004
                   164  0.000000000000000E+000
                   165  9.222144495384569E-006
                   166  0.000000000000000E+000
                   167  0.000000000000000E+000
                   168  1.528715792688635E-005
                   169 -1.933743844134369E-006
                   170  1.113144238639204E-004
                   171  0.000000000000000E+000
                   172  0.000000000000000E+000
                   173  1.553115199949042E-004
                   174 -1.610186095904128E-004
                   175  0.000000000000000E+000
                   176  3.845207442989834E-006
                   177 -3.190227625344938E-005
                   178  0.000000000000000E+000
                   179  0.000000000000000E+000
                   180 -6.122779310042339E-007
                   181 -2.561109569043117E-005
                   182 -1.185114821796802E-004
                   183 -3.163083234941786E-004
                   184  3.370491511322275E-005
                   185  1.389903748213371E-004
                   186 -5.547807164038646E-007
                   187 -4.196638706654599E-005
                   188  0.000000000000000E+000
                   189  7.693771160109893E-006
                   190  2.202338123520818E-005
                   191  0.000000000000000E+000
                   192  5.783684355090378E-005
                   193  3.344417127225503E-005
                   194  0.000000000000000E+000
                   195 -1.706253388803638E-006
                   196  0.000000000000000E+000
                   197  0.000000000000000E+000
                   198 -2.076437423020224E-005
                   199 -5.185407886440041E-007
                   200  1.675788157557773E-005
                   201  0.000000000000000E+000
                   202  0.000000000000000E+000
                   203 -7.677296812730305E-005
                   204 -4.772294923575271E-006
                   205  0.000000000000000E+000
                   206 -4.189225889261375E-007
                   207 -5.021616100265989E-006
                   208  0.000000000000000E+000
                   209  0.000000000000000E+000
                   210  4.049750967301581E-009
                   211 -9.466192990607674E-006
                   212  2.939952128983799E-003
                   213 -1.817896162254925E-003
                   214  4.617804030861792E-004
                   215  3.575728136370603E-004
                   216  0.000000000000000E+000
                   217  3.708899607993772E-003
                   218 -2.258794506957915E-003
                   219 -4.450055392700393E-004
                   220  3.778833824283853E-004
                   221  0.000000000000000E+000
                   222 -6.182351499989951E-004
                   223 -1.864950015431376E-004
                   224 -1.524842220899958E-005
                   225 -4.287055796936218E-005
                   226  0.000000000000000E+000
                   227 -6.351831168818655E-004
                   228 -1.501423687114165E-004
                   229  1.524105897865448E-005
                   230 -4.217267156261882E-005
                   231  0.000000000000000E+000
                   232 -2.209394962015149E-004
                   233 -4.113600848453551E-004
                   234 -5.237479249000411E-006
                   235  5.161249404302918E-006
                   236  0.000000000000000E+000
                   237 -2.245988862303386E-004
                   238 -4.205818391302645E-004
                   239  4.471140272860286E-006
                   240  3.963367100884702E-006
                   241  0.000000000000000E+000
                   242  6.643847414581807E-005
                   243 -1.215142695551950E-004
                   244 -1.881404867657341E-007
                   245  1.426887136775732E-005
                   246  0.000000000000000E+000
 Sym= __2_A'_
 Ene=  0.000000000000000E+000
 Spin= Alpha
 Occup=    2.00000000000000     
                     1 -4.844618567895568E-005
                     2 -2.189858903915649E-004
                     3  2.380217146288334E-003
                     4  1.040303248170460E-004
                     5  1.244702278065870E-003
                     6 -3.727967617154149E-005
                     7  3.010537644447925E-003
                     8  0.000000000000000E+000
                     9 -6.692386120227912E-007
                    10 -5.661372542325714E-005
                    11  0.000000000000000E+000
                    12  1.769931318007322E-005
                    13 -5.236847319650741E-004
                    14  0.000000000000000E+000
                    15  3.467272855497513E-005
                    16  0.000000000000000E+000
                    17  0.000000000000000E+000
                    18 -7.086777268221319E-005
                    19 -2.366104607132081E-006
                    20 -1.450391993160074E-004
                    21  0.000000000000000E+000
                    22  0.000000000000000E+000
                    23  3.799394642483840E-004
                    24  1.296163106853203E-005
                    25  0.000000000000000E+000
                    26 -2.764889260983413E-007
                    27  1.104041533877051E-004
                    28  0.000000000000000E+000
                    29  0.000000000000000E+000
                    30 -5.910603259678488E-006
                    31  1.450783300308255E-004
                    32   1.00106518330086     
                    33  9.281498190584537E-003
                    34  2.616112007550986E-003
                    35 -7.763798480865099E-003
                    36 -5.182635714952361E-006
                    37 -4.161619947217551E-003
                    38  0.000000000000000E+000
                    39 -1.359783541920903E-006
                    40  1.022985181995643E-003
                    41  0.000000000000000E+000
                    42  1.339325313059461E-005
                    43  4.416145761320698E-003
                    44  0.000000000000000E+000
                    45 -6.066074470215445E-004
                    46  0.000000000000000E+000
                    47  0.000000000000000E+000
                    48 -1.953455041142809E-004
                    49  2.193145108452755E-007
                    50  5.197999454396143E-004
                    51  0.000000000000000E+000
                    52  0.000000000000000E+000
                    53 -9.403146160510166E-004
                    54  8.747493438872286E-006
                    55  0.000000000000000E+000
                    56  4.915017246736184E-007
                    57  7.283781482598634E-005
                    58  0.000000000000000E+000
                    59  0.000000000000000E+000
                    60 -1.864719523674096E-006
                    61  4.268642600550585E-004
                    62  7.167222493567644E-003
                    63 -2.052237963276209E-003
                    64 -2.745486523513968E-004
                    65  3.020605234683290E-003
                    66  8.828576471935346E-005
                    67 -1.843916486101887E-006
                    68  0.000000000000000E+000
                    69  5.999217598128953E-004
                    70  2.851217469132116E-005
                    71  0.000000000000000E+000
                    72 -2.079898868239559E-003
                    73  9.937091498742252E-005
                    74  0.000000000000000E+000
                    75  3.267350549199042E-005
                    76  0.000000000000000E+000
                    77  0.000000000000000E+000
                    78 -2.251657594618710E-006
                    79  1.296684657288519E-005
                    80 -3.910901233253517E-004
                    81  0.000000000000000E+000
                    82  0.000000000000000E+000
                    83 -6.461896048251228E-004
                    84 -4.121698645762226E-004
                    85  0.000000000000000E+000
                    86  3.711870087670791E-005
                    87 -5.589862197512056E-005
                    88  0.000000000000000E+000
                    89  0.000000000000000E+000
                    90  5.597021039253614E-005
                    91  1.351329224438649E-004
                    92  7.174417502498407E-003
                    93 -2.057306462762247E-003
                    94 -2.739152709096700E-004
                    95  3.015275362528446E-003
                    96 -8.648189325829014E-005
                    97 -7.611909060275015E-007
                    98  0.000000000000000E+000
                    99 -5.951224826381989E-004
                   100  2.757725031937146E-005
                   101  0.000000000000000E+000
                   102  2.080958162673842E-003
                   103  1.143019798092116E-004
                   104  0.000000000000000E+000
                   105  3.303217612278485E-005
                   106  0.000000000000000E+000
                   107  0.000000000000000E+000
                   108 -1.391913012827249E-006
                   109 -1.369453048200852E-005
                   110 -3.923368827140558E-004
                   111  0.000000000000000E+000
                   112  0.000000000000000E+000
                   113 -6.515959614734736E-004
                   114  4.121586995863873E-004
                   115  0.000000000000000E+000
                   116 -3.644282289805592E-005
                   117 -5.579694914954277E-005
                   118  0.000000000000000E+000
                   119  0.000000000000000E+000
                   120 -5.478711218182779E-005
                   121  1.360680990825019E-004
                   122 -2.323813084273780E-004
                   123 -7.463518329481060E-004
                   124  2.253491538339971E-004
                   125 -1.148595642089188E-004
                   126 -1.628912171556291E-005
                   127 -2.622184210585634E-004
                   128  0.000000000000000E+000
                   129 -1.604665299974787E-005
                   130  5.352917768478650E-004
                   131  0.000000000000000E+000
                   132  3.277416179573469E-004
                   133  7.407226377681363E-004
                   134  0.000000000000000E+000
                   135  1.930080023876261E-005
                   136  0.000000000000000E+000
                   137  0.000000000000000E+000
                   138  5.120846953603896E-006
                   139  5.128335814846454E-005
                   140  1.330124985998413E-004
                   141  0.000000000000000E+000
                   142  0.000000000000000E+000
                   143  2.564184858139386E-004
                   144 -2.147891341799349E-004
                   145  0.000000000000000E+000
                   146  5.127909396171136E-006
                   147 -3.090437057346023E-005
                   148  0.000000000000000E+000
                   149  0.000000000000000E+000
                   150 -4.117632936525859E-005
                   151  2.521233043188024E-005
                   152 -2.316248037795029E-004
                   153 -7.487783448330007E-004
                   154  2.249729222712525E-004
                   155 -1.124157816405976E-004
                   156  1.705014626621653E-005
                   157 -2.618969928491678E-004
                   158  0.000000000000000E+000
                   159  1.128941963793039E-005
                   160  5.364596768826009E-004