[Molden Format]
[Atoms] AU
  N     1    7    -4.4718672400    0.1181762100   -0.1903234100        
  C     2    6    -1.7679091300   -0.0260711000   -0.0843635200        
  C     3    6    -0.3905072200    0.0840076300   -2.3300171700        
  C     4    6    -0.4650942000   -0.1052482900    2.2001505700        
  C     5    6     2.2202571800    0.0676039900   -2.2775683000        
  C     6    6     2.1553848900   -0.0730836200    2.2348842200        
  C     7    6     3.5094566800    0.0012650800    0.0029587600        
  H     8    1    -5.1820815100   -1.4668715800   -1.0535273300        
  H     9    1    -5.1615240900    0.0904219500    1.6215005600        
  H    10    1    -1.3769461000    0.1953758300   -4.0972115800        
  H    11    1    -1.4948490800   -0.2030401400    3.9451656800        
  H    12    1     3.2550562100    0.1383371800   -4.0214993000        
  H    13    1     3.1301767500   -0.1275609700    4.0138016800        
  H    14    1     5.5374544900    0.0108290900    0.0331428800        
[5D]
[7F]
[GTO]
  1  0
   s    12 1.00
  0.114200D+05  0.172695D-04
  0.171200D+04  0.134411D-03
  0.389300D+03  0.694561D-03
  0.110000D+03  0.278531D-02
  0.355700D+02  0.863457D-02
  0.125400D+02  0.199805D-01
  0.464400D+01  0.262908D-01
  0.129300D+01 -0.243845D-01
  0.511800D+00 -0.924934D-01
  0.178700D+00 -0.339683D+00
  0.246240D-01  0.345111D+00
  0.112530D-01  0.752750D+00
   s    10 1.00
  0.114200D+05  0.523000D-03
  0.171200D+04  0.404500D-02
  0.389300D+03  0.207750D-01
  0.110000D+03  0.807269D-01
  0.355700D+02  0.233074D+00
  0.125400D+02  0.433501D+00
  0.464400D+01  0.347472D+00
  0.129300D+01  0.412620D-01
  0.511800D+00 -0.850799D-02
  0.178700D+00  0.238400D-02
   s    10 1.00
  0.114200D+05 -0.115000D-03
  0.171200D+04 -0.895000D-03
  0.389300D+03 -0.462400D-02
  0.110000D+03 -0.185280D-01
  0.355700D+02 -0.573390D-01
  0.125400D+02 -0.132076D+00
  0.464400D+01 -0.172510D+00
  0.129300D+01  0.151814D+00
  0.511800D+00  0.599944D+00
  0.178700D+00  0.387462D+00
   s     1 1.00
  0.129300D+01  0.100000D+01
   s     1 1.00
  0.178700D+00  0.100000D+01
   p     5 1.00
  0.266300D+02  0.146700D-01
  0.594800D+01  0.917640D-01
  0.174200D+01  0.298683D+00
  0.555000D+00  0.498487D+00
  0.172500D+00  0.337023D+00
   p     1 1.00
  0.174200D+01  0.100000D+01
   p     1 1.00
  0.555000D+00  0.100000D+01
   d     1 1.00
  0.165400D+01  0.100000D+01
   d     1 1.00
  0.469000D+00  0.100000D+01
   f     1 1.00
  0.109300D+01  0.100000D+01
  
  2  0
   s    10 1.00
  0.823600D+04  0.531000D-03
  0.123500D+04  0.410800D-02
  0.280800D+03  0.210870D-01
  0.792700D+02  0.818530D-01
  0.255900D+02  0.234817D+00
  0.899700D+01  0.434401D+00
  0.331900D+01  0.346129D+00
  0.905900D+00  0.393780D-01
  0.364300D+00 -0.898300D-02
  0.128500D+00  0.238500D-02
   s    10 1.00
  0.823600D+04 -0.113000D-03
  0.123500D+04 -0.878000D-03
  0.280800D+03 -0.454000D-02
  0.792700D+02 -0.181330D-01
  0.255900D+02 -0.557600D-01
  0.899700D+01 -0.126895D+00
  0.331900D+01 -0.170352D+00
  0.905900D+00  0.140382D+00
  0.364300D+00  0.598684D+00
  0.128500D+00  0.395389D+00
   s     1 1.00
  0.905900D+00  0.100000D+01
   s     1 1.00
  0.364300D+00  0.100000D+01
   p     5 1.00
  0.187100D+02  0.140310D-01
  0.413300D+01  0.868660D-01
  0.120000D+01  0.290216D+00
  0.382700D+00  0.501008D+00
  0.120900D+00  0.343406D+00
   p     1 1.00
  0.382700D+00  0.100000D+01
   p     1 1.00
  0.120900D+00  0.100000D+01
   d     1 1.00
  0.109700D+01  0.100000D+01
   d     1 1.00
  0.318000D+00  0.100000D+01
   f     1 1.00
  0.761000D+00  0.100000D+01
  
  3  0
   s    10 1.00
  0.823600D+04  0.531000D-03
  0.123500D+04  0.410800D-02
  0.280800D+03  0.210870D-01
  0.792700D+02  0.818530D-01
  0.255900D+02  0.234817D+00
  0.899700D+01  0.434401D+00
  0.331900D+01  0.346129D+00
  0.905900D+00  0.393780D-01
  0.364300D+00 -0.898300D-02
  0.128500D+00  0.238500D-02
   s    10 1.00
  0.823600D+04 -0.113000D-03
  0.123500D+04 -0.878000D-03
  0.280800D+03 -0.454000D-02
  0.792700D+02 -0.181330D-01
  0.255900D+02 -0.557600D-01
  0.899700D+01 -0.126895D+00
  0.331900D+01 -0.170352D+00
  0.905900D+00  0.140382D+00
  0.364300D+00  0.598684D+00
  0.128500D+00  0.395389D+00
   s     1 1.00
  0.905900D+00  0.100000D+01
   s     1 1.00
  0.364300D+00  0.100000D+01
   p     5 1.00
  0.187100D+02  0.140310D-01
  0.413300D+01  0.868660D-01
  0.120000D+01  0.290216D+00
  0.382700D+00  0.501008D+00
  0.120900D+00  0.343406D+00
   p     1 1.00
  0.382700D+00  0.100000D+01
   p     1 1.00
  0.120900D+00  0.100000D+01
   d     1 1.00
  0.109700D+01  0.100000D+01
   d     1 1.00
  0.318000D+00  0.100000D+01
   f     1 1.00
  0.761000D+00  0.100000D+01
  
  4  0
   s    10 1.00
  0.823600D+04  0.531000D-03
  0.123500D+04  0.410800D-02
  0.280800D+03  0.210870D-01
  0.792700D+02  0.818530D-01
  0.255900D+02  0.234817D+00
  0.899700D+01  0.434401D+00
  0.331900D+01  0.346129D+00
  0.905900D+00  0.393780D-01
  0.364300D+00 -0.898300D-02
  0.128500D+00  0.238500D-02
   s    10 1.00
  0.823600D+04 -0.113000D-03
  0.123500D+04 -0.878000D-03
  0.280800D+03 -0.454000D-02
  0.792700D+02 -0.181330D-01
  0.255900D+02 -0.557600D-01
  0.899700D+01 -0.126895D+00
  0.331900D+01 -0.170352D+00
  0.905900D+00  0.140382D+00
  0.364300D+00  0.598684D+00
  0.128500D+00  0.395389D+00
   s     1 1.00
  0.905900D+00  0.100000D+01
   s     1 1.00
  0.364300D+00  0.100000D+01
   p     5 1.00
  0.187100D+02  0.140310D-01
  0.413300D+01  0.868660D-01
  0.120000D+01  0.290216D+00
  0.382700D+00  0.501008D+00
  0.120900D+00  0.343406D+00
   p     1 1.00
  0.382700D+00  0.100000D+01
   p     1 1.00
  0.120900D+00  0.100000D+01
   d     1 1.00
  0.109700D+01  0.100000D+01
   d     1 1.00
  0.318000D+00  0.100000D+01
   f     1 1.00
  0.761000D+00  0.100000D+01
  
  5  0
   s    10 1.00
  0.823600D+04  0.531000D-03
  0.123500D+04  0.410800D-02
  0.280800D+03  0.210870D-01
  0.792700D+02  0.818530D-01
  0.255900D+02  0.234817D+00
  0.899700D+01  0.434401D+00
  0.331900D+01  0.346129D+00
  0.905900D+00  0.393780D-01
  0.364300D+00 -0.898300D-02
  0.128500D+00  0.238500D-02
   s    10 1.00
  0.823600D+04 -0.113000D-03
  0.123500D+04 -0.878000D-03
  0.280800D+03 -0.454000D-02
  0.792700D+02 -0.181330D-01
  0.255900D+02 -0.557600D-01
  0.899700D+01 -0.126895D+00
  0.331900D+01 -0.170352D+00
  0.905900D+00  0.140382D+00
  0.364300D+00  0.598684D+00
  0.128500D+00  0.395389D+00
   s     1 1.00
  0.905900D+00  0.100000D+01
   s     1 1.00
  0.364300D+00  0.100000D+01
   p     5 1.00
  0.187100D+02  0.140310D-01
  0.413300D+01  0.868660D-01
  0.120000D+01  0.290216D+00
  0.382700D+00  0.501008D+00
  0.120900D+00  0.343406D+00
   p     1 1.00
  0.382700D+00  0.100000D+01
   p     1 1.00
  0.120900D+00  0.100000D+01
   d     1 1.00
  0.109700D+01  0.100000D+01
   d     1 1.00
  0.318000D+00  0.100000D+01
   f     1 1.00
  0.761000D+00  0.100000D+01
  
  6  0
   s    10 1.00
  0.823600D+04  0.531000D-03
  0.123500D+04  0.410800D-02
  0.280800D+03  0.210870D-01
  0.792700D+02  0.818530D-01
  0.255900D+02  0.234817D+00
  0.899700D+01  0.434401D+00
  0.331900D+01  0.346129D+00
  0.905900D+00  0.393780D-01
  0.364300D+00 -0.898300D-02
  0.128500D+00  0.238500D-02
   s    10 1.00
  0.823600D+04 -0.113000D-03
  0.123500D+04 -0.878000D-03
  0.280800D+03 -0.454000D-02
  0.792700D+02 -0.181330D-01
  0.255900D+02 -0.557600D-01
  0.899700D+01 -0.126895D+00
  0.331900D+01 -0.170352D+00
  0.905900D+00  0.140382D+00
  0.364300D+00  0.598684D+00
  0.128500D+00  0.395389D+00
   s     1 1.00
  0.905900D+00  0.100000D+01
   s     1 1.00
  0.364300D+00  0.100000D+01
   p     5 1.00
  0.187100D+02  0.140310D-01
  0.413300D+01  0.868660D-01
  0.120000D+01  0.290216D+00
  0.382700D+00  0.501008D+00
  0.120900D+00  0.343406D+00
   p     1 1.00
  0.382700D+00  0.100000D+01
   p     1 1.00
  0.120900D+00  0.100000D+01
   d     1 1.00
  0.109700D+01  0.100000D+01
   d     1 1.00
  0.318000D+00  0.100000D+01
   f     1 1.00
  0.761000D+00  0.100000D+01
  
  7  0
   s    10 1.00
  0.823600D+04  0.531000D-03
  0.123500D+04  0.410800D-02
  0.280800D+03  0.210870D-01
  0.792700D+02  0.818530D-01
  0.255900D+02  0.234817D+00
  0.899700D+01  0.434401D+00
  0.331900D+01  0.346129D+00
  0.905900D+00  0.393780D-01
  0.364300D+00 -0.898300D-02
  0.128500D+00  0.238500D-02
   s    10 1.00
  0.823600D+04 -0.113000D-03
  0.123500D+04 -0.878000D-03
  0.280800D+03 -0.454000D-02
  0.792700D+02 -0.181330D-01
  0.255900D+02 -0.557600D-01
  0.899700D+01 -0.126895D+00
  0.331900D+01 -0.170352D+00
  0.905900D+00  0.140382D+00
  0.364300D+00  0.598684D+00
  0.128500D+00  0.395389D+00
   s     1 1.00
  0.905900D+00  0.100000D+01
   s     1 1.00
  0.364300D+00  0.100000D+01
   p     5 1.00
  0.187100D+02  0.140310D-01
  0.413300D+01  0.868660D-01
  0.120000D+01  0.290216D+00
  0.382700D+00  0.501008D+00
  0.120900D+00  0.343406D+00
   p     1 1.00
  0.382700D+00  0.100000D+01
   p     1 1.00
  0.120900D+00  0.100000D+01
   d     1 1.00
  0.109700D+01  0.100000D+01
   d     1 1.00
  0.318000D+00  0.100000D+01
   f     1 1.00
  0.761000D+00  0.100000D+01
  
  8  0
   s     4 1.00
  0.130100D+02  0.196850D-01
  0.196200D+01  0.137977D+00
  0.444600D+00  0.478148D+00
  0.122000D+00  0.501240D+00
   s     1 1.00
  0.122000D+00  0.100000D+01
   p     1 1.00
  0.727000D+00  0.100000D+01
  
  9  0
   s     4 1.00
  0.130100D+02  0.196850D-01
  0.196200D+01  0.137977D+00
  0.444600D+00  0.478148D+00
  0.122000D+00  0.501240D+00
   s     1 1.00
  0.122000D+00  0.100000D+01
   p     1 1.00
  0.727000D+00  0.100000D+01
  
 10  0
   s     4 1.00
  0.130100D+02  0.196850D-01
  0.196200D+01  0.137977D+00
  0.444600D+00  0.478148D+00
  0.122000D+00  0.501240D+00
   s     1 1.00
  0.122000D+00  0.100000D+01
   p     1 1.00
  0.727000D+00  0.100000D+01
  
 11  0
   s     4 1.00
  0.130100D+02  0.196850D-01
  0.196200D+01  0.137977D+00
  0.444600D+00  0.478148D+00
  0.122000D+00  0.501240D+00
   s     1 1.00
  0.122000D+00  0.100000D+01
   p     1 1.00
  0.727000D+00  0.100000D+01
  
 12  0
   s     4 1.00
  0.130100D+02  0.196850D-01
  0.196200D+01  0.137977D+00
  0.444600D+00  0.478148D+00
  0.122000D+00  0.501240D+00
   s     1 1.00
  0.122000D+00  0.100000D+01
   p     1 1.00
  0.727000D+00  0.100000D+01
  
 13  0
   s     4 1.00
  0.130100D+02  0.196850D-01
  0.196200D+01  0.137977D+00
  0.444600D+00  0.478148D+00
  0.122000D+00  0.501240D+00
   s     1 1.00
  0.122000D+00  0.100000D+01
   p     1 1.00
  0.727000D+00  0.100000D+01
  
 14  0
   s     4 1.00
  0.130100D+02  0.196850D-01
  0.196200D+01  0.137977D+00
  0.444600D+00  0.478148D+00
  0.122000D+00  0.501240D+00
   s     1 1.00
  0.122000D+00  0.100000D+01
   p     1 1.00
  0.727000D+00  0.100000D+01
  
[MO]
 Sym= __1_a__
 Ene=  0.000000000000000E+000
 Spin= Alpha
 Occup=    2.00000000000000     
                     1  2.313648257813490E-004
                     2  0.998085264363779     
                     3  2.028861033219910E-003
                     4  1.931118672043940E-003
                     5  6.078964868390700E-003
                     6  5.744389277975110E-003
                     7 -4.373148730451200E-003
                     8  3.438066592141350E-003
                     9 -8.469815711627870E-004
                    10  2.883070906368140E-004
                    11 -4.036980981322730E-004
                    12 -1.618312911966460E-003
                    13  2.864149942107160E-003
                    14 -2.034048169027280E-003
                    15 -5.013766783099429E-006
                    16 -5.149117508581300E-005
                    17 -1.166860404116620E-005
                    18  5.435398392097420E-005
                    19  5.083719443446040E-005
                    20 -2.831033698192704E-004
                    21  3.786920034814420E-004
                    22 -1.813434334472450E-004
                    23  1.065570525555218E-004
                    24 -4.163392063248950E-004
                    25 -5.023979445718959E-005
                    26 -1.178247406538061E-004
                    27  1.125922909272172E-005
                    28  6.344062716862501E-005
                    29 -2.035118798065140E-005
                    30 -1.047631289320181E-004
                    31 -2.624799172079605E-005
                    32 -3.593668403892600E-004
                    33  7.508084555287790E-004
                    34  2.480956024839860E-004
                    35 -8.425558639969191E-005
                    36 -3.823046274776280E-003
                    37 -1.231900604114140E-004
                    38 -1.933636221584940E-004
                    39  2.080142231872060E-004
                    40 -4.356067599775050E-005
                    41  6.043340721166840E-004
                    42  4.801014943082680E-003
                    43  7.643143070859180E-004
                    44 -2.651845596094190E-003
                    45 -2.008035969786435E-004
                    46  2.580334044619490E-005
                    47  8.935671079283650E-006
                    48  1.922472048127688E-004
                    49  4.536627734522230E-005
                    50  5.057920457107966E-004
                    51  4.708268094594100E-004
                    52 -6.111869164581239E-005
                    53 -9.579609712448200E-005
                    54 -3.380526751871360E-004
                    55  2.984188631940719E-005
                    56 -5.174746436060640E-005
                    57  2.421912103668518E-006
                    58  2.593831361366440E-005
                    59  2.330759749120640E-006
                    60 -3.416822346159938E-005
                    61  2.763339388094527E-005
                    62 -6.157955008255079E-004
                    63 -2.519361562637570E-003
                    64 -1.026468677873460E-005
                    65  2.051256559109680E-003
                    66  3.599102758328930E-004
                    67 -1.156833788469300E-004
                    68 -5.872531040988270E-004
                    69  8.335566258082690E-004
                    70  4.963188864610770E-005
                    71  4.606360072621720E-004
                    72  1.179042337304800E-003
                    73 -2.187480712594030E-004
                    74 -1.396373520160810E-003
                    75 -6.866229565903926E-005
                    76 -2.695833605043470E-005
                    77  1.670365215323260E-005
                    78  7.628811574639120E-005
                    79 -4.773114693951910E-006
                    80  3.520232065888018E-004
                    81  1.923976121200990E-004
                    82 -5.097760431675590E-005
                    83 -5.548410205216000E-005
                    84  2.241791684092390E-005
                    85 -1.915777757040749E-005
                    86 -1.178219740210855E-004
                    87  1.793337520839640E-005
                    88  1.761850132587124E-006
                    89  1.339037763682060E-005
                    90 -6.730154900280964E-005
                    91 -1.073223318713368E-005
                    92 -1.062024027244230E-004
                    93 -8.559921216917890E-004
                    94  2.213177476145640E-004
                    95 -4.351596776569150E-004
                    96  5.337955919681480E-004
                    97 -1.238043878018110E-004
                    98  4.271000869258910E-004
                    99  3.250684032896160E-004
                   100  7.446944852963770E-005
                   101  2.580092146302700E-004
                   102 -2.013711389205160E-003
                   103 -2.804909754448360E-004
                   104  2.170029736857570E-004
                   105 -6.534945190021910E-005
                   106  2.126507254372190E-006
                   107 -1.047809082885250E-005
                   108  4.375995428349400E-005
                   109 -8.422984270082141E-006
                   110  6.477946520059513E-006
                   111 -2.010315539128140E-004
                   112  1.010265891312720E-005
                   113 -2.126031497068720E-004
                   114  5.415716637973130E-005
                   115 -1.154379240465950E-005
                   116  1.247633934603461E-005
                   117  1.778364783615959E-005
                   118  1.794419091674690E-005
                   119 -1.044205836754390E-005
                   120 -2.093900282897312E-005
                   121 -6.567197244388849E-006
                   122 -2.778745370864830E-004
                   123 -6.512955179311831E-004
                   124  1.005928986731830E-004
                   125  7.805588073446320E-004
                   126 -4.916081659667460E-004
                   127 -4.812131177668500E-005
                   128 -1.758693925122000E-005
                   129  5.071873581592690E-004
                   130 -2.089209287744200E-005
                   131  2.181907195591090E-004
                   132  2.428195988783000E-003
                   133  1.159491191477810E-004
                   134  3.511788274338030E-004
                   135  2.423389952861857E-005
                   136  1.377314409788570E-006
                   137 -4.244566976255700E-006
                   138 -1.314165234596822E-005
                   139  9.130550338889631E-006
                   140  2.204541367718722E-004
                   141  3.280037939694780E-004
                   142  7.665892029398671E-006
                   143 -3.410662984257780E-004
                   144 -2.492989096979870E-005
                   145 -3.071463992817470E-005
                   146 -2.072841396810486E-005
                   147 -2.559975047514320E-007
                   148 -1.110236389723852E-005
                   149 -3.540361877010920E-006
                   150 -7.407587604973208E-005
                   151 -8.455558127464439E-007
                   152 -1.392837190095600E-004
                   153 -2.001528366381610E-004
                   154 -8.613984358394330E-006
                   155  4.730090292230250E-004
                   156 -4.160119250666380E-004
                   157 -3.950809248515580E-005
                   158 -5.653494245029120E-005
                   159 -1.043552645841150E-004
                   160 -3.231057359042320E-005
                   161  1.980670693148910E-004
                   162 -7.416097452006700E-004
                   163  6.614556625201770E-005
                   164  8.406585735018030E-004
                   165 -1.391031349363813E-005
                   166  6.587648558239450E-006
                   167  2.763728663900190E-006
                   168  1.325240541642380E-005
                   169  6.347159105185000E-006
                   170 -6.072705250110134E-005
                   171 -6.085624488050710E-005
                   172  3.564401460205170E-006
                   173 -1.318790878824492E-005
                   174  4.393898598790450E-006
                   175 -7.370169247300012E-006
                   176 -8.084975318969321E-006
                   177  2.003748605508218E-006
                   178 -3.459486824200160E-006
                   179  3.020593533926990E-007
                   180 -1.246995300353916E-005
                   181 -3.699241098896876E-006
                   182 -1.427493935484710E-004
                   183 -4.422418535025650E-004
                   184  3.290410341636590E-005
                   185  1.812665034403770E-004
                   186 -1.812341857356240E-005
                   187 -3.200791161387100E-005
                   188 -7.242726689110971E-005
                   189  9.033469973648521E-005
                   190  7.511507664399080E-006
                   191  3.185339214562000E-004
                   192 -4.016705622126980E-004
                   193 -1.259854314656640E-004
                   194  1.739758785281060E-003
                   195 -8.271040965355810E-006
                   196  3.106020721678510E-006
                   197  4.677059013484380E-008
                   198  2.897849428074540E-006
                   199 -9.830868469899510E-007
                   200 -1.252796354958400E-004
                   201 -2.615299150208220E-004
                   202  5.086320666092360E-006
                   203  6.595940051243920E-005
                   204  1.935770092844500E-005
                   205  3.084982799383905E-006
                   206  2.121917801870976E-006
                   207  1.426893556360671E-006
                   208  2.064240257956540E-005
                   209 -1.036966564170350E-006
                   210 -5.019206232608387E-006
                   211 -2.549348800852436E-006
                   212  1.891838814422590E-003
                   213 -1.775404738643790E-003
                   214  1.342209643833370E-004
                   215  3.829348178571780E-004
                   216  1.263296900786930E-004
                   217  2.449590102885080E-003
                   218 -2.039995902158430E-003
                   219  1.781694650910540E-004
                   220  8.178480717485530E-005
                   221 -4.663035443405850E-004
                   222 -4.951830669487750E-004
                   223 -2.437733538081990E-004
                   224 -8.610831897526990E-005
                   225  6.866513858066390E-006
                   226  3.663754108170200E-005
                   227 -3.648266824155620E-004
                   228 -4.358483645956800E-004
                   229 -3.784196230546840E-005
                   230  1.384441158169180E-005
                   231 -4.683133431564550E-005
                   232 -3.812810181893260E-005
                   233 -6.451753235081520E-004
                   234 -6.332274627225750E-007
                   235 -1.114254743371130E-006
                   236 -5.617732540429670E-007
                   237 -1.319320603752590E-004
                   238 -3.051658317654440E-004
                   239  1.542104881683750E-005
                   240 -3.008228824755900E-006
                   241  1.853083070949830E-005
                   242  1.076343333668390E-008
                   243  1.178965489426460E-004
                   244  3.011681224982780E-005
                   245  1.786211388502610E-006
                   246  1.641755334594810E-006
 Sym= __2_a__
 Ene=  0.000000000000000E+000
 Spin= Alpha
 Occup=    2.00000000000000     
                     1 -9.949981118939851E-006
                     2 -8.542365678453640E-005
                     3  1.782929453351810E-003
                     4 -1.868860497112280E-005
                     5  1.210490570204200E-003
                     6  1.747063998813680E-003
                     7  1.162503526463450E-004
                     8 -2.052980927985820E-004
                     9 -1.542230225410920E-004
                    10  1.019898230295640E-004
                    11 -2.551678968882440E-005
                    12  1.115278920121170E-004
                    13  1.126224849561450E-004
                    14  5.679904936693710E-005
                    15 -6.583171657018905E-005
                    16  1.378930167176780E-005
                    17 -8.617570169293170E-006
                    18  4.390937728009600E-005
                    19 -1.236230356029040E-006
                    20  1.424163003722504E-004
                    21 -6.826608270733299E-005
                    22  3.275128573237820E-005
                    23  1.151949977307256E-004
                    24 -5.885641140777480E-005
                    25 -5.946199895588308E-005
                    26  1.319057224557068E-004
                    27 -1.542210598266125E-005
                    28 -7.530821116159660E-006
                    29 -1.150845047188990E-006
                    30  1.273904213050552E-004
                    31  3.445407352431592E-005
                    32   1.00093686140167     
                    33  8.739452514904400E-003
                    34  2.812290232511420E-003
                    35 -8.305477839858881E-003
                    36 -2.349618914727370E-003
                    37  5.534488128035350E-004
                    38  2.904030465503650E-005
                    39  1.086863469806520E-003
                    40 -1.963266473978060E-004
                    41 -1.227858214543850E-004
                    42  3.194700894635650E-003
                    43 -1.091808541020030E-004
                    44 -1.844786551242400E-004
                    45  3.021983735551518E-004
                    46  1.905548249006350E-005
                    47 -2.180315823170490E-005
                    48  3.895710995450300E-004
                    49 -1.207420719756940E-005
                    50 -1.017675150916735E-003
                    51 -1.646279438774380E-004
                    52  8.397169097793269E-005
                    53 -1.366319821259880E-004
                    54  1.882743199139370E-005
                    55 -1.127114177940154E-005
                    56  2.946503770584367E-004
                    57 -8.888365668601846E-006
                    58 -1.697316003996498E-005
                    59 -6.485272231631740E-006
                    60  7.552675292401577E-005
                    61  1.370647614617945E-005
                    62  1.331434279263320E-002
                    63 -1.821997562785060E-003
                    64 -2.883471950149760E-004
                    65  2.986300709640750E-003
                    66 -1.574775583366850E-004
                    67  7.537199293636930E-005
                    68  2.962592931438980E-004
                    69  3.275408509565840E-005
                    70 -1.582071015403680E-005
                    71  4.073546094858130E-004
                    72  4.092231264563790E-004
                    73  6.774456879893800E-005
                    74 -1.832820359505390E-003
                    75 -7.252102532619922E-006
                    76  2.585855493943270E-005
                    77  7.774378983773700E-006
                    78 -3.907051289315120E-005
                    79 -3.769202921528820E-006
                    80 -4.599839011136672E-004
                    81 -4.169456536678000E-004
                    82  1.287200182057650E-005
                    83  7.847616642062520E-004
                    84  7.725677169653230E-006
                    85  4.564029824800296E-005
                    86  1.098643980599247E-004
                    87  1.056501150596203E-005
                    88 -1.770391815717914E-005
                    89 -1.511311332243180E-005
                    90 -2.492791430341341E-005
                    91  2.558500829701969E-006
                    92  1.473605887218290E-002
                    93 -1.743867936914800E-003
                    94 -3.351878914908760E-004
                    95  3.249415254154050E-003
                    96 -1.951669564735460E-004
                    97  1.009930159735840E-004
                    98 -2.857397670795130E-004
                    99 -1.687856111470910E-005
                   100  2.994260201714860E-005
                   101 -6.311679092369799E-004
                   102  2.180241213561840E-005
                   103 -7.879869874598970E-005
                   104  1.720309062535320E-003
                   105 -2.062749966911250E-006
                   106 -1.714527202018200E-005
                   107 -3.208131477960130E-006
                   108 -3.273922660208960E-005
                   109 -3.488494722448090E-006
                   110 -3.422676789946728E-004
                   111  4.902417642462800E-004
                   112 -1.286779124248160E-005
                   113  7.084067249865060E-004
                   114 -1.356304319468530E-005
                   115 -5.151205629103073E-005
                   116  9.805813931544171E-005
                   117 -4.091399611495783E-006
                   118  2.014431565309700E-005
                   119 -1.026629985091770E-006
                   120 -3.299108248266577E-005
                   121  3.985252218147306E-006
                   122 -1.391107442131440E-004
                   123 -7.586281990442260E-004
                   124  2.420000147457240E-004
                   125 -2.735592855060670E-004
                   126 -1.762850652160380E-004
                   127  1.884334887745930E-005
                   128 -5.268852073924570E-005
                   129  6.070631590304630E-004
                   130 -9.572054053069371E-006
                   131  7.809719879688850E-005
                   132  7.115991612569740E-004
                   133 -1.423765690255240E-005
                   134  4.116006004927690E-004
                   135  3.886426983914496E-007
                   136  4.079623629089770E-005
                   137  6.328736916749080E-007
                   138 -3.293913956528220E-005
                   139 -2.661720202535130E-006
                   140  1.980398010156987E-004
                   141 -2.615229983840430E-004
                   142  7.902324944225480E-007
                   143 -2.541282373409000E-004
                   144  9.229184856819660E-006
                   145 -1.775621333369990E-005
                   146  1.534837328163456E-005
                   147 -1.284358731338519E-006
                   148 -1.071761065013072E-005
                   149 -2.884931062169350E-006
                   150 -2.236597534353139E-005
                   151  6.629968055602004E-007
                   152 -1.032995677688550E-004
                   153 -7.154943742445750E-004
                   154  2.538065372061330E-004
                   155 -3.272237608411980E-004
                   156 -1.580710707428940E-004
                   157  4.665130367510360E-006
                   158  3.378506955068100E-005
                   159  5.631096729882380E-004
                   160  8.057729235595399E-006