[Molden Format]
[Atoms] AU
  N     1    7    -4.4718672400    0.1181762100   -0.1903234100        
  C     2    6    -1.7679091300   -0.0260711000   -0.0843635200        
  C     3    6    -0.3905072200    0.0840076300   -2.3300171700        
  C     4    6    -0.4650942000   -0.1052482900    2.2001505700        
  C     5    6     2.2202571800    0.0676039900   -2.2775683000        
  C     6    6     2.1553848900   -0.0730836200    2.2348842200        
  C     7    6     3.5094566800    0.0012650800    0.0029587600        
  H     8    1    -5.1820815100   -1.4668715800   -1.0535273300        
  H     9    1    -5.1615240900    0.0904219500    1.6215005600        
  H    10    1    -1.3769461000    0.1953758300   -4.0972115800        
  H    11    1    -1.4948490800   -0.2030401400    3.9451656800        
  H    12    1     3.2550562100    0.1383371800   -4.0214993000        
  H    13    1     3.1301767500   -0.1275609700    4.0138016800        
  H    14    1     5.5374544900    0.0108290900    0.0331428800        
[5D]
[7F]
[GTO]
  1  0
   s    12 1.00
  0.114200D+05  0.172695D-04
  0.171200D+04  0.134411D-03
  0.389300D+03  0.694561D-03
  0.110000D+03  0.278531D-02
  0.355700D+02  0.863457D-02
  0.125400D+02  0.199805D-01
  0.464400D+01  0.262908D-01
  0.129300D+01 -0.243845D-01
  0.511800D+00 -0.924934D-01
  0.178700D+00 -0.339683D+00
  0.246240D-01  0.345111D+00
  0.112530D-01  0.752750D+00
   s    10 1.00
  0.114200D+05  0.523000D-03
  0.171200D+04  0.404500D-02
  0.389300D+03  0.207750D-01
  0.110000D+03  0.807269D-01
  0.355700D+02  0.233074D+00
  0.125400D+02  0.433501D+00
  0.464400D+01  0.347472D+00
  0.129300D+01  0.412620D-01
  0.511800D+00 -0.850799D-02
  0.178700D+00  0.238400D-02
   s    10 1.00
  0.114200D+05 -0.115000D-03
  0.171200D+04 -0.895000D-03
  0.389300D+03 -0.462400D-02
  0.110000D+03 -0.185280D-01
  0.355700D+02 -0.573390D-01
  0.125400D+02 -0.132076D+00
  0.464400D+01 -0.172510D+00
  0.129300D+01  0.151814D+00
  0.511800D+00  0.599944D+00
  0.178700D+00  0.387462D+00
   s     1 1.00
  0.129300D+01  0.100000D+01
   s     1 1.00
  0.178700D+00  0.100000D+01
   p     5 1.00
  0.266300D+02  0.146700D-01
  0.594800D+01  0.917640D-01
  0.174200D+01  0.298683D+00
  0.555000D+00  0.498487D+00
  0.172500D+00  0.337023D+00
   p     1 1.00
  0.174200D+01  0.100000D+01
   p     1 1.00
  0.555000D+00  0.100000D+01
   d     1 1.00
  0.165400D+01  0.100000D+01
   d     1 1.00
  0.469000D+00  0.100000D+01
   f     1 1.00
  0.109300D+01  0.100000D+01
  
  2  0
   s    10 1.00
  0.823600D+04  0.531000D-03
  0.123500D+04  0.410800D-02
  0.280800D+03  0.210870D-01
  0.792700D+02  0.818530D-01
  0.255900D+02  0.234817D+00
  0.899700D+01  0.434401D+00
  0.331900D+01  0.346129D+00
  0.905900D+00  0.393780D-01
  0.364300D+00 -0.898300D-02
  0.128500D+00  0.238500D-02
   s    10 1.00
  0.823600D+04 -0.113000D-03
  0.123500D+04 -0.878000D-03
  0.280800D+03 -0.454000D-02
  0.792700D+02 -0.181330D-01
  0.255900D+02 -0.557600D-01
  0.899700D+01 -0.126895D+00
  0.331900D+01 -0.170352D+00
  0.905900D+00  0.140382D+00
  0.364300D+00  0.598684D+00
  0.128500D+00  0.395389D+00
   s     1 1.00
  0.905900D+00  0.100000D+01
   s     1 1.00
  0.364300D+00  0.100000D+01
   p     5 1.00
  0.187100D+02  0.140310D-01
  0.413300D+01  0.868660D-01
  0.120000D+01  0.290216D+00
  0.382700D+00  0.501008D+00
  0.120900D+00  0.343406D+00
   p     1 1.00
  0.382700D+00  0.100000D+01
   p     1 1.00
  0.120900D+00  0.100000D+01
   d     1 1.00
  0.109700D+01  0.100000D+01
   d     1 1.00
  0.318000D+00  0.100000D+01
   f     1 1.00
  0.761000D+00  0.100000D+01
  
  3  0
   s    10 1.00
  0.823600D+04  0.531000D-03
  0.123500D+04  0.410800D-02
  0.280800D+03  0.210870D-01
  0.792700D+02  0.818530D-01
  0.255900D+02  0.234817D+00
  0.899700D+01  0.434401D+00
  0.331900D+01  0.346129D+00
  0.905900D+00  0.393780D-01
  0.364300D+00 -0.898300D-02
  0.128500D+00  0.238500D-02
   s    10 1.00
  0.823600D+04 -0.113000D-03
  0.123500D+04 -0.878000D-03
  0.280800D+03 -0.454000D-02
  0.792700D+02 -0.181330D-01
  0.255900D+02 -0.557600D-01
  0.899700D+01 -0.126895D+00
  0.331900D+01 -0.170352D+00
  0.905900D+00  0.140382D+00
  0.364300D+00  0.598684D+00
  0.128500D+00  0.395389D+00
   s     1 1.00
  0.905900D+00  0.100000D+01
   s     1 1.00
  0.364300D+00  0.100000D+01
   p     5 1.00
  0.187100D+02  0.140310D-01
  0.413300D+01  0.868660D-01
  0.120000D+01  0.290216D+00
  0.382700D+00  0.501008D+00
  0.120900D+00  0.343406D+00
   p     1 1.00
  0.382700D+00  0.100000D+01
   p     1 1.00
  0.120900D+00  0.100000D+01
   d     1 1.00
  0.109700D+01  0.100000D+01
   d     1 1.00
  0.318000D+00  0.100000D+01
   f     1 1.00
  0.761000D+00  0.100000D+01
  
  4  0
   s    10 1.00
  0.823600D+04  0.531000D-03
  0.123500D+04  0.410800D-02
  0.280800D+03  0.210870D-01
  0.792700D+02  0.818530D-01
  0.255900D+02  0.234817D+00
  0.899700D+01  0.434401D+00
  0.331900D+01  0.346129D+00
  0.905900D+00  0.393780D-01
  0.364300D+00 -0.898300D-02
  0.128500D+00  0.238500D-02
   s    10 1.00
  0.823600D+04 -0.113000D-03
  0.123500D+04 -0.878000D-03
  0.280800D+03 -0.454000D-02
  0.792700D+02 -0.181330D-01
  0.255900D+02 -0.557600D-01
  0.899700D+01 -0.126895D+00
  0.331900D+01 -0.170352D+00
  0.905900D+00  0.140382D+00
  0.364300D+00  0.598684D+00
  0.128500D+00  0.395389D+00
   s     1 1.00
  0.905900D+00  0.100000D+01
   s     1 1.00
  0.364300D+00  0.100000D+01
   p     5 1.00
  0.187100D+02  0.140310D-01
  0.413300D+01  0.868660D-01
  0.120000D+01  0.290216D+00
  0.382700D+00  0.501008D+00
  0.120900D+00  0.343406D+00
   p     1 1.00
  0.382700D+00  0.100000D+01
   p     1 1.00
  0.120900D+00  0.100000D+01
   d     1 1.00
  0.109700D+01  0.100000D+01
   d     1 1.00
  0.318000D+00  0.100000D+01
   f     1 1.00
  0.761000D+00  0.100000D+01
  
  5  0
   s    10 1.00
  0.823600D+04  0.531000D-03
  0.123500D+04  0.410800D-02
  0.280800D+03  0.210870D-01
  0.792700D+02  0.818530D-01
  0.255900D+02  0.234817D+00
  0.899700D+01  0.434401D+00
  0.331900D+01  0.346129D+00
  0.905900D+00  0.393780D-01
  0.364300D+00 -0.898300D-02
  0.128500D+00  0.238500D-02
   s    10 1.00
  0.823600D+04 -0.113000D-03
  0.123500D+04 -0.878000D-03
  0.280800D+03 -0.454000D-02
  0.792700D+02 -0.181330D-01
  0.255900D+02 -0.557600D-01
  0.899700D+01 -0.126895D+00
  0.331900D+01 -0.170352D+00
  0.905900D+00  0.140382D+00
  0.364300D+00  0.598684D+00
  0.128500D+00  0.395389D+00
   s     1 1.00
  0.905900D+00  0.100000D+01
   s     1 1.00
  0.364300D+00  0.100000D+01
   p     5 1.00
  0.187100D+02  0.140310D-01
  0.413300D+01  0.868660D-01
  0.120000D+01  0.290216D+00
  0.382700D+00  0.501008D+00
  0.120900D+00  0.343406D+00
   p     1 1.00
  0.382700D+00  0.100000D+01
   p     1 1.00
  0.120900D+00  0.100000D+01
   d     1 1.00
  0.109700D+01  0.100000D+01
   d     1 1.00
  0.318000D+00  0.100000D+01
   f     1 1.00
  0.761000D+00  0.100000D+01
  
  6  0
   s    10 1.00
  0.823600D+04  0.531000D-03
  0.123500D+04  0.410800D-02
  0.280800D+03  0.210870D-01
  0.792700D+02  0.818530D-01
  0.255900D+02  0.234817D+00
  0.899700D+01  0.434401D+00
  0.331900D+01  0.346129D+00
  0.905900D+00  0.393780D-01
  0.364300D+00 -0.898300D-02
  0.128500D+00  0.238500D-02
   s    10 1.00
  0.823600D+04 -0.113000D-03
  0.123500D+04 -0.878000D-03
  0.280800D+03 -0.454000D-02
  0.792700D+02 -0.181330D-01
  0.255900D+02 -0.557600D-01
  0.899700D+01 -0.126895D+00
  0.331900D+01 -0.170352D+00
  0.905900D+00  0.140382D+00
  0.364300D+00  0.598684D+00
  0.128500D+00  0.395389D+00
   s     1 1.00
  0.905900D+00  0.100000D+01
   s     1 1.00
  0.364300D+00  0.100000D+01
   p     5 1.00
  0.187100D+02  0.140310D-01
  0.413300D+01  0.868660D-01
  0.120000D+01  0.290216D+00
  0.382700D+00  0.501008D+00
  0.120900D+00  0.343406D+00
   p     1 1.00
  0.382700D+00  0.100000D+01
   p     1 1.00
  0.120900D+00  0.100000D+01
   d     1 1.00
  0.109700D+01  0.100000D+01
   d     1 1.00
  0.318000D+00  0.100000D+01
   f     1 1.00
  0.761000D+00  0.100000D+01
  
  7  0
   s    10 1.00
  0.823600D+04  0.531000D-03
  0.123500D+04  0.410800D-02
  0.280800D+03  0.210870D-01
  0.792700D+02  0.818530D-01
  0.255900D+02  0.234817D+00
  0.899700D+01  0.434401D+00
  0.331900D+01  0.346129D+00
  0.905900D+00  0.393780D-01
  0.364300D+00 -0.898300D-02
  0.128500D+00  0.238500D-02
   s    10 1.00
  0.823600D+04 -0.113000D-03
  0.123500D+04 -0.878000D-03
  0.280800D+03 -0.454000D-02
  0.792700D+02 -0.181330D-01
  0.255900D+02 -0.557600D-01
  0.899700D+01 -0.126895D+00
  0.331900D+01 -0.170352D+00
  0.905900D+00  0.140382D+00
  0.364300D+00  0.598684D+00
  0.128500D+00  0.395389D+00
   s     1 1.00
  0.905900D+00  0.100000D+01
   s     1 1.00
  0.364300D+00  0.100000D+01
   p     5 1.00
  0.187100D+02  0.140310D-01
  0.413300D+01  0.868660D-01
  0.120000D+01  0.290216D+00
  0.382700D+00  0.501008D+00
  0.120900D+00  0.343406D+00
   p     1 1.00
  0.382700D+00  0.100000D+01
   p     1 1.00
  0.120900D+00  0.100000D+01
   d     1 1.00
  0.109700D+01  0.100000D+01
   d     1 1.00
  0.318000D+00  0.100000D+01
   f     1 1.00
  0.761000D+00  0.100000D+01
  
  8  0
   s     4 1.00
  0.130100D+02  0.196850D-01
  0.196200D+01  0.137977D+00
  0.444600D+00  0.478148D+00
  0.122000D+00  0.501240D+00
   s     1 1.00
  0.122000D+00  0.100000D+01
   p     1 1.00
  0.727000D+00  0.100000D+01
  
  9  0
   s     4 1.00
  0.130100D+02  0.196850D-01
  0.196200D+01  0.137977D+00
  0.444600D+00  0.478148D+00
  0.122000D+00  0.501240D+00
   s     1 1.00
  0.122000D+00  0.100000D+01
   p     1 1.00
  0.727000D+00  0.100000D+01
  
 10  0
   s     4 1.00
  0.130100D+02  0.196850D-01
  0.196200D+01  0.137977D+00
  0.444600D+00  0.478148D+00
  0.122000D+00  0.501240D+00
   s     1 1.00
  0.122000D+00  0.100000D+01
   p     1 1.00
  0.727000D+00  0.100000D+01
  
 11  0
   s     4 1.00
  0.130100D+02  0.196850D-01
  0.196200D+01  0.137977D+00
  0.444600D+00  0.478148D+00
  0.122000D+00  0.501240D+00
   s     1 1.00
  0.122000D+00  0.100000D+01
   p     1 1.00
  0.727000D+00  0.100000D+01
  
 12  0
   s     4 1.00
  0.130100D+02  0.196850D-01
  0.196200D+01  0.137977D+00
  0.444600D+00  0.478148D+00
  0.122000D+00  0.501240D+00
   s     1 1.00
  0.122000D+00  0.100000D+01
   p     1 1.00
  0.727000D+00  0.100000D+01
  
 13  0
   s     4 1.00
  0.130100D+02  0.196850D-01
  0.196200D+01  0.137977D+00
  0.444600D+00  0.478148D+00
  0.122000D+00  0.501240D+00
   s     1 1.00
  0.122000D+00  0.100000D+01
   p     1 1.00
  0.727000D+00  0.100000D+01
  
 14  0
   s     4 1.00
  0.130100D+02  0.196850D-01
  0.196200D+01  0.137977D+00
  0.444600D+00  0.478148D+00
  0.122000D+00  0.501240D+00
   s     1 1.00
  0.122000D+00  0.100000D+01
   p     1 1.00
  0.727000D+00  0.100000D+01
  
[MO]
 Sym= __1_A__
 Ene=   1.00000000000000     
 Spin= Alpha
 Occup=    1.00000000000000     
                     1  2.313648257813485E-004
                     2  0.998085264363779     
                     3  2.028861033219909E-003
                     4  1.931118672043942E-003
                     5  6.078964868390701E-003
                     6  5.744389277975114E-003
                     7 -4.373148730451196E-003
                     8  3.438066592141346E-003
                     9 -8.469815711627866E-004
                    10  2.883070906368138E-004
                    11 -4.036980981322726E-004
                    12 -1.618312911966459E-003
                    13  2.864149942107155E-003
                    14 -2.034048169027283E-003
                    15 -5.013766783099412E-006
                    16 -5.149117508581300E-005
                    17 -1.166860404116616E-005
                    18  5.435398392097428E-005
                    19  5.083719443446036E-005
                    20 -2.831033698192706E-004
                    21  3.786920034814420E-004
                    22 -1.813434334472452E-004
                    23  1.065570525555219E-004
                    24 -4.163392063248945E-004
                    25 -5.023979445718965E-005
                    26 -1.178247406538059E-004
                    27  1.125922909272170E-005
                    28  6.344062716862497E-005
                    29 -2.035118798065139E-005
                    30 -1.047631289320181E-004
                    31 -2.624799172079605E-005
                    32 -3.593668403892604E-004
                    33  7.508084555287792E-004
                    34  2.480956024839861E-004
                    35 -8.425558639969191E-005
                    36 -3.823046274776280E-003
                    37 -1.231900604114140E-004
                    38 -1.933636221584944E-004
                    39  2.080142231872063E-004
                    40 -4.356067599775050E-005
                    41  6.043340721166837E-004
                    42  4.801014943082680E-003
                    43  7.643143070859176E-004
                    44 -2.651845596094193E-003
                    45 -2.008035969786434E-004
                    46  2.580334044619492E-005
                    47  8.935671079283655E-006
                    48  1.922472048127689E-004
                    49  4.536627734522235E-005
                    50  5.057920457107964E-004
                    51  4.708268094594097E-004
                    52 -6.111869164581245E-005
                    53 -9.579609712448208E-005
                    54 -3.380526751871363E-004
                    55  2.984188631940729E-005
                    56 -5.174746436060637E-005
                    57  2.421912103668517E-006
                    58  2.593831361366444E-005
                    59  2.330759749120644E-006
                    60 -3.416822346159945E-005
                    61  2.763339388094526E-005
                    62 -6.157955008255081E-004
                    63 -2.519361562637575E-003
                    64 -1.026468677873465E-005
                    65  2.051256559109682E-003
                    66  3.599102758328933E-004
                    67 -1.156833788469298E-004
                    68 -5.872531040988274E-004
                    69  8.335566258082692E-004
                    70  4.963188864610775E-005
                    71  4.606360072621717E-004
                    72  1.179042337304796E-003
                    73 -2.187480712594034E-004
                    74 -1.396373520160812E-003
                    75 -6.866229565903926E-005
                    76 -2.695833605043472E-005
                    77  1.670365215323262E-005
                    78  7.628811574639130E-005
                    79 -4.773114693951912E-006
                    80  3.520232065888015E-004
                    81  1.923976121200992E-004
                    82 -5.097760431675595E-005
                    83 -5.548410205215994E-005
                    84  2.241791684092392E-005
                    85 -1.915777757040749E-005
                    86 -1.178219740210857E-004
                    87  1.793337520839641E-005
                    88  1.761850132587124E-006
                    89  1.339037763682055E-005
                    90 -6.730154900280967E-005
                    91 -1.073223318713367E-005
                    92 -1.062024027244235E-004
                    93 -8.559921216917890E-004
                    94  2.213177476145636E-004
                    95 -4.351596776569150E-004
                    96  5.337955919681480E-004
                    97 -1.238043878018105E-004
                    98  4.271000869258910E-004
                    99  3.250684032896162E-004
                   100  7.446944852963773E-005
                   101  2.580092146302698E-004
                   102 -2.013711389205161E-003
                   103 -2.804909754448355E-004
                   104  2.170029736857567E-004
                   105 -6.534945190021912E-005
                   106  2.126507254372190E-006
                   107 -1.047809082885249E-005
                   108  4.375995428349406E-005
                   109 -8.422984270082139E-006
                   110  6.477946520059523E-006
                   111 -2.010315539128145E-004
                   112  1.010265891312718E-005
                   113 -2.126031497068712E-004
                   114  5.415716637973126E-005
                   115 -1.154379240465950E-005
                   116  1.247633934603461E-005
                   117  1.778364783615958E-005
                   118  1.794419091674690E-005
                   119 -1.044205836754394E-005
                   120 -2.093900282897320E-005
                   121 -6.567197244388864E-006
                   122 -2.778745370864831E-004
                   123 -6.512955179311827E-004
                   124  1.005928986731825E-004
                   125  7.805588073446320E-004
                   126 -4.916081659667464E-004
                   127 -4.812131177668498E-005
                   128 -1.758693925122000E-005
                   129  5.071873581592694E-004
                   130 -2.089209287744201E-005
                   131  2.181907195591089E-004
                   132  2.428195988783004E-003
                   133  1.159491191477807E-004
                   134  3.511788274338026E-004
                   135  2.423389952861857E-005
                   136  1.377314409788573E-006
                   137 -4.244566976255702E-006
                   138 -1.314165234596823E-005
                   139  9.130550338889627E-006
                   140  2.204541367718723E-004
                   141  3.280037939694780E-004
                   142  7.665892029398673E-006
                   143 -3.410662984257784E-004
                   144 -2.492989096979871E-005
                   145 -3.071463992817468E-005
                   146 -2.072841396810487E-005
                   147 -2.559975047514318E-007
                   148 -1.110236389723851E-005
                   149 -3.540361877010922E-006
                   150 -7.407587604973201E-005
                   151 -8.455558127464453E-007
                   152 -1.392837190095596E-004
                   153 -2.001528366381611E-004
                   154 -8.613984358394328E-006
                   155  4.730090292230246E-004
                   156 -4.160119250666382E-004
                   157 -3.950809248515583E-005
                   158 -5.653494245029120E-005
                   159 -1.043552645841154E-004
                   160 -3.231057359042323E-005
                   161  1.980670693148912E-004
                   162 -7.416097452006699E-004
                   163  6.614556625201773E-005
                   164  8.406585735018032E-004
                   165 -1.391031349363812E-005
                   166  6.587648558239454E-006
                   167  2.763728663900186E-006
                   168  1.325240541642380E-005
                   169  6.347159105184997E-006
                   170 -6.072705250110144E-005
                   171 -6.085624488050707E-005
                   172  3.564401460205167E-006
                   173 -1.318790878824493E-005
                   174  4.393898598790450E-006
                   175 -7.370169247300000E-006
                   176 -8.084975318969302E-006
                   177  2.003748605508219E-006
                   178 -3.459486824200166E-006
                   179  3.020593533926991E-007
                   180 -1.246995300353916E-005
                   181 -3.699241098896879E-006
                   182 -1.427493935484710E-004
                   183 -4.422418535025646E-004
                   184  3.290410341636589E-005
                   185  1.812665034403771E-004
                   186 -1.812341857356244E-005
                   187 -3.200791161387104E-005
                   188 -7.242726689110975E-005
                   189  9.033469973648518E-005
                   190  7.511507664399080E-006
                   191  3.185339214562000E-004
                   192 -4.016705622126976E-004
                   193 -1.259854314656638E-004
                   194  1.739758785281058E-003
                   195 -8.271040965355803E-006
                   196  3.106020721678508E-006
                   197  4.677059013484384E-008
                   198  2.897849428074540E-006
                   199 -9.830868469899512E-007
                   200 -1.252796354958399E-004
                   201 -2.615299150208218E-004
                   202  5.086320666092361E-006
                   203  6.595940051243916E-005
                   204  1.935770092844504E-005
                   205  3.084982799383910E-006
                   206  2.121917801870976E-006
                   207  1.426893556360673E-006
                   208  2.064240257956536E-005
                   209 -1.036966564170349E-006
                   210 -5.019206232608384E-006
                   211 -2.549348800852434E-006
                   212  1.891838814422589E-003
                   213 -1.775404738643790E-003
                   214  1.342209643833369E-004
                   215  3.829348178571784E-004
                   216  1.263296900786931E-004
                   217  2.449590102885080E-003
                   218 -2.039995902158427E-003
                   219  1.781694650910535E-004
                   220  8.178480717485532E-005
                   221 -4.663035443405847E-004
                   222 -4.951830669487755E-004
                   223 -2.437733538081992E-004
                   224 -8.610831897526989E-005
                   225  6.866513858066392E-006
                   226  3.663754108170197E-005
                   227 -3.648266824155617E-004
                   228 -4.358483645956803E-004
                   229 -3.784196230546838E-005
                   230  1.384441158169177E-005
                   231 -4.683133431564549E-005
                   232 -3.812810181893260E-005
                   233 -6.451753235081519E-004
                   234 -6.332274627225746E-007
                   235 -1.114254743371126E-006
                   236 -5.617732540429674E-007
                   237 -1.319320603752589E-004
                   238 -3.051658317654445E-004
                   239  1.542104881683748E-005
                   240 -3.008228824755901E-006
                   241  1.853083070949833E-005
                   242  1.076343333668387E-008
                   243  1.178965489426460E-004
                   244  3.011681224982777E-005
                   245  1.786211388502613E-006
                   246  1.641755334594808E-006
 Sym= __2_A__
 Ene=   2.00000000000000     
 Spin= Alpha
 Occup=    1.00000000000000     
                     1 -9.949981118939851E-006
                     2 -8.542365678453637E-005
                     3  1.782929453351812E-003
                     4 -1.868860497112277E-005
                     5  1.210490570204201E-003
                     6  1.747063998813681E-003
                     7  1.162503526463445E-004
                     8 -2.052980927985824E-004
                     9 -1.542230225410917E-004
                    10  1.019898230295639E-004
                    11 -2.551678968882441E-005
                    12  1.115278920121166E-004
                    13  1.126224849561450E-004
                    14  5.679904936693715E-005
                    15 -6.583171657018919E-005
                    16  1.378930167176776E-005
                    17 -8.617570169293173E-006
                    18  4.390937728009606E-005
                    19 -1.236230356029042E-006
                    20  1.424163003722503E-004
                    21 -6.826608270733298E-005
                    22  3.275128573237819E-005
                    23  1.151949977307255E-004
                    24 -5.885641140777476E-005
                    25 -5.946199895588313E-005
                    26  1.319057224557068E-004
                    27 -1.542210598266125E-005
                    28 -7.530821116159654E-006
                    29 -1.150845047188993E-006
                    30  1.273904213050553E-004
                    31  3.445407352431593E-005
                    32   1.00093686140167     
                    33  8.739452514904402E-003
                    34  2.812290232511422E-003
                    35 -8.305477839858882E-003
                    36 -2.349618914727369E-003
                    37  5.534488128035348E-004
                    38  2.904030465503646E-005
                    39  1.086863469806515E-003
                    40 -1.963266473978058E-004
                    41 -1.227858214543853E-004
                    42  3.194700894635654E-003
                    43 -1.091808541020026E-004
                    44 -1.844786551242396E-004
                    45  3.021983735551519E-004
                    46  1.905548249006346E-005
                    47 -2.180315823170493E-005
                    48  3.895710995450298E-004
                    49 -1.207420719756941E-005
                    50 -1.017675150916736E-003
                    51 -1.646279438774376E-004
                    52  8.397169097793267E-005
                    53 -1.366319821259880E-004
                    54  1.882743199139373E-005
                    55 -1.127114177940155E-005
                    56  2.946503770584366E-004
                    57 -8.888365668601827E-006
                    58 -1.697316003996498E-005
                    59 -6.485272231631737E-006
                    60  7.552675292401573E-005
                    61  1.370647614617945E-005
                    62  1.331434279263316E-002
                    63 -1.821997562785061E-003
                    64 -2.883471950149763E-004
                    65  2.986300709640750E-003
                    66 -1.574775583366846E-004
                    67  7.537199293636930E-005
                    68  2.962592931438983E-004
                    69  3.275408509565836E-005
                    70 -1.582071015403684E-005
                    71  4.073546094858131E-004
                    72  4.092231264563785E-004
                    73  6.774456879893804E-005
                    74 -1.832820359505390E-003
                    75 -7.252102532619933E-006
                    76  2.585855493943266E-005
                    77  7.774378983773699E-006
                    78 -3.907051289315122E-005
                    79 -3.769202921528821E-006
                    80 -4.599839011136662E-004
                    81 -4.169456536678003E-004
                    82  1.287200182057646E-005
                    83  7.847616642062514E-004
                    84  7.725677169653234E-006
                    85  4.564029824800285E-005
                    86  1.098643980599248E-004
                    87  1.056501150596201E-005
                    88 -1.770391815717914E-005
                    89 -1.511311332243182E-005
                    90 -2.492791430341341E-005
                    91  2.558500829701967E-006
                    92  1.473605887218290E-002
                    93 -1.743867936914797E-003
                    94 -3.351878914908764E-004
                    95  3.249415254154053E-003
                    96 -1.951669564735461E-004
                    97  1.009930159735840E-004
                    98 -2.857397670795130E-004
                    99 -1.687856111470912E-005
                   100  2.994260201714860E-005
                   101 -6.311679092369804E-004
                   102  2.180241213561843E-005
                   103 -7.879869874598970E-005
                   104  1.720309062535316E-003
                   105 -2.062749966911251E-006
                   106 -1.714527202018201E-005
                   107 -3.208131477960132E-006
                   108 -3.273922660208960E-005
                   109 -3.488494722448091E-006
                   110 -3.422676789946728E-004
                   111  4.902417642462802E-004
                   112 -1.286779124248157E-005
                   113  7.084067249865051E-004
                   114 -1.356304319468525E-005
                   115 -5.151205629103064E-005
                   116  9.805813931544178E-005
                   117 -4.091399611495781E-006
                   118  2.014431565309698E-005
                   119 -1.026629985091766E-006
                   120 -3.299108248266571E-005
                   121  3.985252218147307E-006
                   122 -1.391107442131440E-004
                   123 -7.586281990442259E-004
                   124  2.420000147457238E-004
                   125 -2.735592855060667E-004
                   126 -1.762850652160376E-004
                   127  1.884334887745931E-005
                   128 -5.268852073924565E-005
                   129  6.070631590304625E-004
                   130 -9.572054053069372E-006
                   131  7.809719879688845E-005
                   132  7.115991612569740E-004
                   133 -1.423765690255235E-005
                   134  4.116006004927687E-004
                   135  3.886426983914492E-007
                   136  4.079623629089774E-005
                   137  6.328736916749078E-007
                   138 -3.293913956528218E-005
                   139 -2.661720202535130E-006
                   140  1.980398010156986E-004
                   141 -2.615229983840429E-004
                   142  7.902324944225477E-007
                   143 -2.541282373408992E-004
                   144  9.229184856819658E-006
                   145 -1.775621333369990E-005
                   146  1.534837328163458E-005
                   147 -1.284358731338516E-006
                   148 -1.071761065013072E-005
                   149 -2.884931062169353E-006
                   150 -2.236597534353139E-005
                   151  6.629968055602009E-007
                   152 -1.032995677688545E-004
                   153 -7.154943742445748E-004
                   154  2.538065372061332E-004
                   155 -3.272237608411982E-004
                   156 -1.580710707428941E-004
                   157  4.665130367510360E-006
                   158  3.378506955068095E-005
                   159  5.631096729882375E-004
                   160  8.057729235595404E-006