[Molden Format]
[Atoms] AU
  N     1    7    -4.5082829200   -0.1342819900   -0.4228200100        
  C     2    6    -1.7496705200   -0.0824342700   -0.1838819400        
  C     3    6    -0.3491890900    0.2202010900   -2.3813599000        
  C     4    6    -0.4819141000   -0.3194027500    2.1144844200        
  C     5    6     2.2679837200    0.2851297300   -2.2867536700        
  C     6    6     2.1285900100   -0.2535069600    2.1993448600        
  C     7    6     3.5096699900    0.0491470500   -0.0030301700        
  H     8    1    -5.2360393300   -2.3263659700    0.8673061800        
  H     9    1    -5.3517620400    1.6481447500    1.3409217500        
  H    10    1    -1.3260875200    0.4019365300   -4.1451509600        
  H    11    1    -1.5448115400   -0.5543420500    3.8263524900        
  H    12    1     3.3318141500    0.5199799700   -3.9976458500        
  H    13    1     3.0845146800   -0.4378414600    3.9798216900        
  H    14    1     5.5368142800    0.0998677000    0.0666404700        
[5D]
[7F]
[GTO]
  1  0
   s    12 1.00
  0.114200D+05  0.172695D-04
  0.171200D+04  0.134411D-03
  0.389300D+03  0.694561D-03
  0.110000D+03  0.278531D-02
  0.355700D+02  0.863457D-02
  0.125400D+02  0.199805D-01
  0.464400D+01  0.262908D-01
  0.129300D+01 -0.243845D-01
  0.511800D+00 -0.924934D-01
  0.178700D+00 -0.339683D+00
  0.246240D-01  0.345111D+00
  0.112530D-01  0.752750D+00
   s    10 1.00
  0.114200D+05  0.523000D-03
  0.171200D+04  0.404500D-02
  0.389300D+03  0.207750D-01
  0.110000D+03  0.807269D-01
  0.355700D+02  0.233074D+00
  0.125400D+02  0.433501D+00
  0.464400D+01  0.347472D+00
  0.129300D+01  0.412620D-01
  0.511800D+00 -0.850799D-02
  0.178700D+00  0.238400D-02
   s    10 1.00
  0.114200D+05 -0.115000D-03
  0.171200D+04 -0.895000D-03
  0.389300D+03 -0.462400D-02
  0.110000D+03 -0.185280D-01
  0.355700D+02 -0.573390D-01
  0.125400D+02 -0.132076D+00
  0.464400D+01 -0.172510D+00
  0.129300D+01  0.151814D+00
  0.511800D+00  0.599944D+00
  0.178700D+00  0.387462D+00
   s     1 1.00
  0.129300D+01  0.100000D+01
   s     1 1.00
  0.178700D+00  0.100000D+01
   p     5 1.00
  0.266300D+02  0.146700D-01
  0.594800D+01  0.917640D-01
  0.174200D+01  0.298683D+00
  0.555000D+00  0.498487D+00
  0.172500D+00  0.337023D+00
   p     1 1.00
  0.174200D+01  0.100000D+01
   p     1 1.00
  0.555000D+00  0.100000D+01
   d     1 1.00
  0.165400D+01  0.100000D+01
   d     1 1.00
  0.469000D+00  0.100000D+01
   f     1 1.00
  0.109300D+01  0.100000D+01
  
  2  0
   s    10 1.00
  0.823600D+04  0.531000D-03
  0.123500D+04  0.410800D-02
  0.280800D+03  0.210870D-01
  0.792700D+02  0.818530D-01
  0.255900D+02  0.234817D+00
  0.899700D+01  0.434401D+00
  0.331900D+01  0.346129D+00
  0.905900D+00  0.393780D-01
  0.364300D+00 -0.898300D-02
  0.128500D+00  0.238500D-02
   s    10 1.00
  0.823600D+04 -0.113000D-03
  0.123500D+04 -0.878000D-03
  0.280800D+03 -0.454000D-02
  0.792700D+02 -0.181330D-01
  0.255900D+02 -0.557600D-01
  0.899700D+01 -0.126895D+00
  0.331900D+01 -0.170352D+00
  0.905900D+00  0.140382D+00
  0.364300D+00  0.598684D+00
  0.128500D+00  0.395389D+00
   s     1 1.00
  0.905900D+00  0.100000D+01
   s     1 1.00
  0.364300D+00  0.100000D+01
   p     5 1.00
  0.187100D+02  0.140310D-01
  0.413300D+01  0.868660D-01
  0.120000D+01  0.290216D+00
  0.382700D+00  0.501008D+00
  0.120900D+00  0.343406D+00
   p     1 1.00
  0.382700D+00  0.100000D+01
   p     1 1.00
  0.120900D+00  0.100000D+01
   d     1 1.00
  0.109700D+01  0.100000D+01
   d     1 1.00
  0.318000D+00  0.100000D+01
   f     1 1.00
  0.761000D+00  0.100000D+01
  
  3  0
   s    10 1.00
  0.823600D+04  0.531000D-03
  0.123500D+04  0.410800D-02
  0.280800D+03  0.210870D-01
  0.792700D+02  0.818530D-01
  0.255900D+02  0.234817D+00
  0.899700D+01  0.434401D+00
  0.331900D+01  0.346129D+00
  0.905900D+00  0.393780D-01
  0.364300D+00 -0.898300D-02
  0.128500D+00  0.238500D-02
   s    10 1.00
  0.823600D+04 -0.113000D-03
  0.123500D+04 -0.878000D-03
  0.280800D+03 -0.454000D-02
  0.792700D+02 -0.181330D-01
  0.255900D+02 -0.557600D-01
  0.899700D+01 -0.126895D+00
  0.331900D+01 -0.170352D+00
  0.905900D+00  0.140382D+00
  0.364300D+00  0.598684D+00
  0.128500D+00  0.395389D+00
   s     1 1.00
  0.905900D+00  0.100000D+01
   s     1 1.00
  0.364300D+00  0.100000D+01
   p     5 1.00
  0.187100D+02  0.140310D-01
  0.413300D+01  0.868660D-01
  0.120000D+01  0.290216D+00
  0.382700D+00  0.501008D+00
  0.120900D+00  0.343406D+00
   p     1 1.00
  0.382700D+00  0.100000D+01
   p     1 1.00
  0.120900D+00  0.100000D+01
   d     1 1.00
  0.109700D+01  0.100000D+01
   d     1 1.00
  0.318000D+00  0.100000D+01
   f     1 1.00
  0.761000D+00  0.100000D+01
  
  4  0
   s    10 1.00
  0.823600D+04  0.531000D-03
  0.123500D+04  0.410800D-02
  0.280800D+03  0.210870D-01
  0.792700D+02  0.818530D-01
  0.255900D+02  0.234817D+00
  0.899700D+01  0.434401D+00
  0.331900D+01  0.346129D+00
  0.905900D+00  0.393780D-01
  0.364300D+00 -0.898300D-02
  0.128500D+00  0.238500D-02
   s    10 1.00
  0.823600D+04 -0.113000D-03
  0.123500D+04 -0.878000D-03
  0.280800D+03 -0.454000D-02
  0.792700D+02 -0.181330D-01
  0.255900D+02 -0.557600D-01
  0.899700D+01 -0.126895D+00
  0.331900D+01 -0.170352D+00
  0.905900D+00  0.140382D+00
  0.364300D+00  0.598684D+00
  0.128500D+00  0.395389D+00
   s     1 1.00
  0.905900D+00  0.100000D+01
   s     1 1.00
  0.364300D+00  0.100000D+01
   p     5 1.00
  0.187100D+02  0.140310D-01
  0.413300D+01  0.868660D-01
  0.120000D+01  0.290216D+00
  0.382700D+00  0.501008D+00
  0.120900D+00  0.343406D+00
   p     1 1.00
  0.382700D+00  0.100000D+01
   p     1 1.00
  0.120900D+00  0.100000D+01
   d     1 1.00
  0.109700D+01  0.100000D+01
   d     1 1.00
  0.318000D+00  0.100000D+01
   f     1 1.00
  0.761000D+00  0.100000D+01
  
  5  0
   s    10 1.00
  0.823600D+04  0.531000D-03
  0.123500D+04  0.410800D-02
  0.280800D+03  0.210870D-01
  0.792700D+02  0.818530D-01
  0.255900D+02  0.234817D+00
  0.899700D+01  0.434401D+00
  0.331900D+01  0.346129D+00
  0.905900D+00  0.393780D-01
  0.364300D+00 -0.898300D-02
  0.128500D+00  0.238500D-02
   s    10 1.00
  0.823600D+04 -0.113000D-03
  0.123500D+04 -0.878000D-03
  0.280800D+03 -0.454000D-02
  0.792700D+02 -0.181330D-01
  0.255900D+02 -0.557600D-01
  0.899700D+01 -0.126895D+00
  0.331900D+01 -0.170352D+00
  0.905900D+00  0.140382D+00
  0.364300D+00  0.598684D+00
  0.128500D+00  0.395389D+00
   s     1 1.00
  0.905900D+00  0.100000D+01
   s     1 1.00
  0.364300D+00  0.100000D+01
   p     5 1.00
  0.187100D+02  0.140310D-01
  0.413300D+01  0.868660D-01
  0.120000D+01  0.290216D+00
  0.382700D+00  0.501008D+00
  0.120900D+00  0.343406D+00
   p     1 1.00
  0.382700D+00  0.100000D+01
   p     1 1.00
  0.120900D+00  0.100000D+01
   d     1 1.00
  0.109700D+01  0.100000D+01
   d     1 1.00
  0.318000D+00  0.100000D+01
   f     1 1.00
  0.761000D+00  0.100000D+01
  
  6  0
   s    10 1.00
  0.823600D+04  0.531000D-03
  0.123500D+04  0.410800D-02
  0.280800D+03  0.210870D-01
  0.792700D+02  0.818530D-01
  0.255900D+02  0.234817D+00
  0.899700D+01  0.434401D+00
  0.331900D+01  0.346129D+00
  0.905900D+00  0.393780D-01
  0.364300D+00 -0.898300D-02
  0.128500D+00  0.238500D-02
   s    10 1.00
  0.823600D+04 -0.113000D-03
  0.123500D+04 -0.878000D-03
  0.280800D+03 -0.454000D-02
  0.792700D+02 -0.181330D-01
  0.255900D+02 -0.557600D-01
  0.899700D+01 -0.126895D+00
  0.331900D+01 -0.170352D+00
  0.905900D+00  0.140382D+00
  0.364300D+00  0.598684D+00
  0.128500D+00  0.395389D+00
   s     1 1.00
  0.905900D+00  0.100000D+01
   s     1 1.00
  0.364300D+00  0.100000D+01
   p     5 1.00
  0.187100D+02  0.140310D-01
  0.413300D+01  0.868660D-01
  0.120000D+01  0.290216D+00
  0.382700D+00  0.501008D+00
  0.120900D+00  0.343406D+00
   p     1 1.00
  0.382700D+00  0.100000D+01
   p     1 1.00
  0.120900D+00  0.100000D+01
   d     1 1.00
  0.109700D+01  0.100000D+01
   d     1 1.00
  0.318000D+00  0.100000D+01
   f     1 1.00
  0.761000D+00  0.100000D+01
  
  7  0
   s    10 1.00
  0.823600D+04  0.531000D-03
  0.123500D+04  0.410800D-02
  0.280800D+03  0.210870D-01
  0.792700D+02  0.818530D-01
  0.255900D+02  0.234817D+00
  0.899700D+01  0.434401D+00
  0.331900D+01  0.346129D+00
  0.905900D+00  0.393780D-01
  0.364300D+00 -0.898300D-02
  0.128500D+00  0.238500D-02
   s    10 1.00
  0.823600D+04 -0.113000D-03
  0.123500D+04 -0.878000D-03
  0.280800D+03 -0.454000D-02
  0.792700D+02 -0.181330D-01
  0.255900D+02 -0.557600D-01
  0.899700D+01 -0.126895D+00
  0.331900D+01 -0.170352D+00
  0.905900D+00  0.140382D+00
  0.364300D+00  0.598684D+00
  0.128500D+00  0.395389D+00
   s     1 1.00
  0.905900D+00  0.100000D+01
   s     1 1.00
  0.364300D+00  0.100000D+01
   p     5 1.00
  0.187100D+02  0.140310D-01
  0.413300D+01  0.868660D-01
  0.120000D+01  0.290216D+00
  0.382700D+00  0.501008D+00
  0.120900D+00  0.343406D+00
   p     1 1.00
  0.382700D+00  0.100000D+01
   p     1 1.00
  0.120900D+00  0.100000D+01
   d     1 1.00
  0.109700D+01  0.100000D+01
   d     1 1.00
  0.318000D+00  0.100000D+01
   f     1 1.00
  0.761000D+00  0.100000D+01
  
  8  0
   s     4 1.00
  0.130100D+02  0.196850D-01
  0.196200D+01  0.137977D+00
  0.444600D+00  0.478148D+00
  0.122000D+00  0.501240D+00
   s     1 1.00
  0.122000D+00  0.100000D+01
   p     1 1.00
  0.727000D+00  0.100000D+01
  
  9  0
   s     4 1.00
  0.130100D+02  0.196850D-01
  0.196200D+01  0.137977D+00
  0.444600D+00  0.478148D+00
  0.122000D+00  0.501240D+00
   s     1 1.00
  0.122000D+00  0.100000D+01
   p     1 1.00
  0.727000D+00  0.100000D+01
  
 10  0
   s     4 1.00
  0.130100D+02  0.196850D-01
  0.196200D+01  0.137977D+00
  0.444600D+00  0.478148D+00
  0.122000D+00  0.501240D+00
   s     1 1.00
  0.122000D+00  0.100000D+01
   p     1 1.00
  0.727000D+00  0.100000D+01
  
 11  0
   s     4 1.00
  0.130100D+02  0.196850D-01
  0.196200D+01  0.137977D+00
  0.444600D+00  0.478148D+00
  0.122000D+00  0.501240D+00
   s     1 1.00
  0.122000D+00  0.100000D+01
   p     1 1.00
  0.727000D+00  0.100000D+01
  
 12  0
   s     4 1.00
  0.130100D+02  0.196850D-01
  0.196200D+01  0.137977D+00
  0.444600D+00  0.478148D+00
  0.122000D+00  0.501240D+00
   s     1 1.00
  0.122000D+00  0.100000D+01
   p     1 1.00
  0.727000D+00  0.100000D+01
  
 13  0
   s     4 1.00
  0.130100D+02  0.196850D-01
  0.196200D+01  0.137977D+00
  0.444600D+00  0.478148D+00
  0.122000D+00  0.501240D+00
   s     1 1.00
  0.122000D+00  0.100000D+01
   p     1 1.00
  0.727000D+00  0.100000D+01
  
 14  0
   s     4 1.00
  0.130100D+02  0.196850D-01
  0.196200D+01  0.137977D+00
  0.444600D+00  0.478148D+00
  0.122000D+00  0.501240D+00
   s     1 1.00
  0.122000D+00  0.100000D+01
   p     1 1.00
  0.727000D+00  0.100000D+01
  
[MO]
 Sym= __1_a__
 Ene=  0.000000000000000E+000
 Spin= Alpha
 Occup=    2.00000000000000     
                     1 -8.225665302665190E-005
                     2  0.998575431115062     
                     3 -1.995983426665700E-002
                     4  1.123852562224020E-003
                     5  7.001527636193640E-003
                     6  1.133756622287020E-002
                     7 -1.254889631391470E-003
                     8  1.330105680044630E-002
                     9 -1.700250711759580E-003
                    10  1.058903317217270E-004
                    11 -1.304053509299600E-003
                    12 -4.202460010845490E-003
                    13  4.388926216961900E-004
                    14 -4.709946697586260E-003
                    15  7.731623687611245E-005
                    16  2.059709736804810E-006
                    17 -2.659833578215080E-005
                    18  8.648508803261579E-005
                    19  4.887222640525870E-006
                    20  1.266686170575823E-004
                    21  6.912098382515400E-004
                    22 -3.593689477109030E-005
                    23  2.487621700562400E-004
                    24 -6.781360495665221E-005
                    25  5.454274858064699E-005
                    26 -5.059957370807150E-005
                    27  9.868322936630737E-006
                    28  2.594927821206520E-005
                    29  6.178538312809450E-006
                    30 -3.364529139595186E-005
                    31 -8.048937852109595E-007
                    32 -3.149040970406360E-004
                    33  4.691325801356680E-004
                    34  3.332832434466520E-004
                    35 -6.709069566052540E-005
                    36  4.849615555780670E-004
                    37  2.201678342460430E-004
                    38 -1.729120454025120E-003
                    39 -3.043532110692230E-004
                    40 -1.308710219945920E-004
                    41  1.023884385365550E-003
                    42  5.259842772376450E-003
                    43  4.276722154749050E-004
                    44 -2.303778061175480E-003
                    45 -9.410806605359090E-007
                    46 -1.476531332135240E-004
                    47 -5.559617283882510E-006
                    48  1.101370009495624E-005
                    49  1.827096485608890E-005
                    50  2.726302125979223E-004
                    51  6.091913355037491E-004
                    52 -1.492856271334430E-005
                    53 -1.974123129897672E-004
                    54 -8.410863480643790E-005
                    55  7.249899791194363E-005
                    56 -2.354930054786226E-005
                    57  7.340905298890908E-006
                    58  7.086174337239580E-005
                    59 -1.898421304234200E-007
                    60 -5.992490689493884E-005
                    61 -5.062014691410069E-006
                    62 -9.353377020491550E-004
                    63 -1.120389545195590E-003
                    64 -1.684924628841110E-004
                    65  3.405859070750620E-003
                    66 -2.712293275349230E-003
                    67 -1.980332678540000E-004
                    68  9.991440416239499E-004
                    69  8.905079440290240E-004
                    70 -6.380615441218530E-005
                    71  7.530372117278740E-004
                    72  1.457451644108130E-003
                    73  3.182107640905040E-004
                    74 -2.314264415936380E-003
                    75  5.969180727075038E-005
                    76 -9.460547232061500E-005
                    77 -2.201230615841300E-005
                    78  5.517146592090600E-005
                    79  1.457499067154460E-005
                    80  3.649589873141366E-004
                    81 -2.109471146763480E-004
                    82 -8.718378734774390E-005
                    83  3.676999906390780E-005
                    84  2.760424644668330E-005
                    85 -2.835215898977669E-005
                    86 -1.934437150586081E-004
                    87 -1.969716174565898E-005
                    88  2.632156718825700E-005
                    89  2.720551525588600E-005
                    90 -7.725900804128636E-005
                    91  2.544067012592374E-006
                    92 -5.935789309239780E-005
                    93 -5.012173141864890E-004
                    94  2.952257522164100E-004
                    95 -9.513043033955510E-004
                    96 -2.428148399325730E-004
                    97 -1.122838925574510E-004
                    98  8.829422329452520E-004
                    99  2.068866189163210E-004
                   100 -3.935966204026000E-005
                   101  3.808525276115700E-004
                   102 -2.149849757006950E-003
                   103 -1.359478750552680E-004
                   104  6.155655903600270E-004
                   105 -1.532090216333628E-005
                   106 -3.449254798207100E-005
                   107 -6.719963851898530E-007
                   108  2.350831310969500E-005
                   109  5.486163267658320E-006
                   110 -2.132998988636955E-004
                   111  1.239386149592600E-004
                   112  5.916861011066600E-005
                   113 -8.916782267553640E-005
                   114 -2.018353834109410E-005
                   115 -2.426709905538295E-005
                   116  3.607929893255660E-005
                   117 -6.397904946188793E-006
                   118  9.630106112868540E-007
                   119 -7.555264001448210E-006
                   120 -5.022815092707844E-006
                   121  2.942378367624946E-007
                   122 -3.579192097168280E-004
                   123 -1.866067777027390E-003
                   124  1.735126121596030E-004
                   125  8.520246495634850E-004
                   126  1.171908943075910E-003
                   127  5.667472638813890E-005
                   128 -1.892650247723420E-004
                   129  5.544822039529770E-004
                   130 -3.160426203787520E-005
                   131  4.006985670696920E-004
                   132  2.167468680263420E-003
                   133  4.357769609421810E-006
                   134  4.930283373871010E-004
                   135  6.905732839341580E-005
                   136 -2.725688031797340E-005
                   137 -8.528697968687690E-006
                   138 -5.571810257230580E-005
                   139  3.311446234650770E-008
                   140  2.621161794193608E-004
                   141  2.198545052101260E-004
                   142  6.586135387263590E-006
                   143 -4.532300430877100E-004
                   144 -5.265889052769270E-005
                   145 -2.077484623409541E-005
                   146 -4.857784334255040E-005
                   147 -8.610796180016942E-006
                   148  4.971817796927760E-006
                   149 -6.022972681049250E-006
                   150 -1.052593759384725E-004
                   151  8.471365006365677E-006
                   152 -2.066794135224700E-004
                   153 -6.506724693523150E-004
                   154 -3.810518417116380E-005
                   155  7.212595572055450E-004
                   156  2.786375507656450E-004
                   157  1.292111997649640E-005
                   158 -4.034793755478130E-005
                   159 -1.849534892789510E-004
                   160 -1.419207230886130E-005
                   161  7.390654478355520E-005
                   162 -6.094196096587160E-004
                   163 -1.142833408278960E-004
                   164  8.101419196897370E-004
                   165 -8.020631656711639E-006
                   166 -9.928328230478891E-006
                   167 -5.016783183034020E-007
                   168  1.555392012356622E-005
                   169  2.092222515939950E-006
                   170 -1.746422971094410E-005
                   171  5.778026983174160E-005
                   172  1.206177746555620E-005
                   173 -5.512027756041860E-005
                   174 -1.014510072130980E-005
                   175 -8.306631149019112E-006
                   176 -1.067355326598898E-005
                   177 -7.239193588750543E-007
                   178 -1.075817205927816E-005
                   179  1.071276426318930E-006
                   180 -2.198970115008865E-006
                   181  1.756011624838715E-006
                   182 -1.713663851815640E-004
                   183 -4.179084835070800E-004
                   184  4.437354154987410E-005
                   185  2.822651908063180E-004
                   186 -1.894559507075620E-004
                   187 -3.778068794190150E-006
                   188 -1.458647504661630E-005
                   189  1.648008921246540E-004
                   190 -4.037877712734470E-005
                   191  3.791197746958740E-004
                   192 -5.694774953355410E-004
                   193 -2.087440356895210E-004
                   194  1.612601951170740E-003
                   195  1.941738106693294E-005
                   196 -3.273666694555120E-006
                   197 -2.718044701338840E-006
                   198 -1.193767060904588E-005
                   199 -2.958911906363830E-007
                   200 -9.566435563625756E-005
                   201 -2.903871284186260E-004
                   202  7.313053891053490E-006
                   203  3.317886608663140E-005
                   204  3.654123818028290E-005
                   205  1.519608523130868E-006
                   206  9.130013602247405E-006
                   207 -2.791758045564394E-006
                   208  1.799228713561078E-005
                   209 -1.497367870664050E-006
                   210 -5.708474450457629E-006
                   211 -2.152361005820789E-006
                   212 -1.169993696202110E-003
                   213  8.923282801039430E-004
                   214  7.370055687954110E-005
                   215 -5.531205094975600E-005
                   216  6.045218560359400E-006
                   217 -1.169993563521530E-003
                   218  8.923281501051000E-004
                   219  7.044556344065610E-005
                   220  5.648086131727050E-005
                   221  1.936682909071880E-005
                   222  5.968972287007510E-004
                   223 -1.269293426382510E-003
                   224 -7.622304309186550E-005
                   225 -1.578457985580160E-005
                   226  1.138373783493980E-004
                   227  8.225773166834150E-004
                   228 -1.007760773575740E-003
                   229  2.003810073799310E-006
                   230  1.189842210666620E-005
                   231 -9.935981531668540E-005
                   232  7.162992655435180E-004
                   233 -6.027099506688710E-004
                   234 -8.644225825741240E-006
                   235 -5.542920278750250E-006
                   236  4.440354013382420E-005
                   237 -6.485855754943150E-005
                   238 -4.051362723993010E-004
                   239 -9.448740892070590E-007
                   240 -1.184309903725600E-006
                   241  9.707475180486239E-006
                   242 -2.974015101748250E-004
                   243  1.945801458566470E-004
                   244  4.308523060183710E-005
                   245  1.195365906813470E-006
                   246  4.959028391315190E-007
 Sym= __2_a__
 Ene=  0.000000000000000E+000
 Spin= Alpha
 Occup=    2.00000000000000     
                     1 -1.980199985915490E-005
                     2 -1.524947366967480E-004
                     3  8.733566852288070E-004
                     4  2.583140162358330E-007
                     5  9.401359207555660E-004
                     6  1.712548139728560E-003
                     7 -1.880473449068410E-005
                     8  5.762490114019550E-004
                     9 -1.293392784806760E-004
                    10  3.166555810346450E-006
                    11 -5.817587085372560E-005
                    12  1.159214213043690E-004
                    13  1.755294224340260E-005
                    14 -1.189778396194490E-004
                    15 -5.034711755900106E-005
                    16  2.967480427350150E-005
                    17  4.479532057430020E-006
                    18  5.740264676843080E-005
                    19 -2.091538374926080E-007
                    20  1.623734128984303E-005
                    21 -5.402188013770880E-005
                    22 -1.953932992712910E-005
                    23  1.199268445075360E-004
                    24  1.350021156627530E-005
                    25 -2.412292192713882E-005
                    26  1.199813119050670E-004
                    27  7.422583170717966E-006
                    28 -5.646779832486140E-005
                    29 -1.203285109025900E-005
                    30  9.649966798998091E-005
                    31 -3.431922358829495E-008
                    32   1.00074967107306     
                    33  8.672112568930071E-003
                    34  2.834515467595320E-003
                    35 -8.438402748427771E-003
                    36 -1.461636244752210E-003
                    37 -4.471035265242420E-005
                    38  1.806717325678450E-005
                    39  4.209936740160000E-004
                    40  4.799660238310720E-005
                    41 -2.999145717567750E-004
                    42  2.565697870312060E-003
                    43  3.772510934970040E-005
                    44  3.103168919535590E-004
                    45  3.035852024299319E-004
                    46  9.345254859916790E-006
                    47 -1.033284319573840E-004
                    48  3.307233235485600E-004
                    49  1.851942401848830E-005
                    50 -1.022117190299278E-003
                    51 -3.225497608518090E-004
                    52  2.155185075337210E-004
                    53 -9.231736501105940E-005
                    54  3.233982629502260E-005
                    55 -3.234613051075275E-005
                    56  2.555172752927130E-004
                    57  4.263055054115567E-006
                    58 -3.143872225682840E-005
                    59 -3.827955263589720E-005
                    60  8.412135812760943E-005
                    61 -2.459909303216425E-006
                    62  1.973586136314050E-002
                    63 -1.550948993603730E-003
                    64 -2.843721057509340E-004
                    65  2.805114755720110E-003
                    66 -1.872799082867460E-004
                    67 -4.431157331491320E-005
                    68  3.260962033969210E-004
                    69 -3.253492693681740E-006
                    70 -4.397459569552710E-005
                    71  3.682336503884040E-004
                    72  2.058839151786610E-004
                    73  2.157233719703110E-004
                    74 -1.760013556070560E-003
                    75  5.380316834170823E-006
                    76  1.997133335847760E-005
                    77  4.366694370979930E-006
                    78 -4.042477343910480E-005
                    79 -4.753082038405910E-006
                    80 -5.217964350134526E-004
                    81 -3.507005082795600E-004
                    82  2.262792694261620E-006
                    83  7.967954132880900E-004
                    84  8.825752512887009E-005
                    85  3.474356194846225E-005
                    86  1.139045171582444E-004
                    87  1.963202509781117E-005
                    88 -2.791426403263720E-005
                    89 -2.748824506782820E-005
                    90 -2.624793440988429E-005
                    91  6.774307610399370E-006
                    92  1.968958922976820E-002
                    93 -1.780197690980910E-003
                    94 -3.302486107809390E-004
                    95  3.367279381930880E-003
                    96 -1.592435888825410E-004
                    97  2.864363704332520E-005
                    98 -2.792820270803350E-004
                    99 -1.089620027261920E-004
                   100  9.480566132530880E-005
                   101 -8.222195846668750E-004
                   102  2.465288580256430E-004
                   103 -1.708816823950650E-004
                   104  1.494251351299760E-003
                   105  6.077807249269214E-007
                   106  7.426363309168330E-007
                   107  2.244170032151660E-006
                   108 -1.940038069094856E-005
                   109 -1.227050118217060E-006
                   110 -1.431894760197892E-004
                   111  4.890737546662730E-004
                   112 -2.854255912766890E-005
                   113  6.043003873325100E-004
                   114 -2.301073733208040E-005
                   115 -4.253848159070829E-005
                   116  9.038716531863512E-005
                   117 -1.376651708617895E-005
                   118  1.911978707758058E-005
                   119 -2.046871501172270E-005
                   120 -2.960874611931202E-005
                   121 -1.866876826909405E-007
                   122  1.026699662844910E-004
                   123 -6.673127636744960E-004
                   124  2.388412118346810E-004
                   125 -3.765284736731340E-004
                   126 -1.771489972475710E-004
                   127 -9.338972127648050E-008
                   128 -4.250350820569750E-005
                   129  6.294742016599280E-004
                   130  1.332712397296940E-005
                   131  4.197267003408150E-005
                   132  4.020019104074060E-004
                   133 -3.634075796318300E-005
                   134  4.031946298828760E-004
                   135  7.431708154302697E-007
                   136  3.686833449160370E-005
                   137  5.363606574799160E-006
                   138 -3.645988078042040E-005
                   139 -6.540692724947300E-006
                   140  1.813556133133207E-004
                   141 -2.560518358111800E-004
                   142 -1.887323728047350E-005
                   143 -2.210564181177860E-004
                   144  1.772078569554060E-005
                   145 -1.247616684096447E-005
                   146  1.530655139798669E-005
                   147 -2.087648519189976E-006
                   148 -5.956526603622200E-006
                   149 -6.358343639480780E-006
                   150 -2.072169120155949E-005
                   151  2.717841246688073E-006
                   152  1.576669957784070E-004
                   153 -7.137514050800190E-004
                   154  2.270721383530200E-004
                   155 -1.230533278252700E-004
                   156 -1.823194873933590E-004
                   157 -8.272402145079891E-006
                   158  2.487465817658870E-005
                   159  4.878905539085920E-004
                   160  1.227036520636590E-005