[Molden Format]
[Atoms] AU
  N     1    7    -4.5082829200   -0.1342819900   -0.4228200100        
  C     2    6    -1.7496705200   -0.0824342700   -0.1838819400        
  C     3    6    -0.3491890900    0.2202010900   -2.3813599000        
  C     4    6    -0.4819141000   -0.3194027500    2.1144844200        
  C     5    6     2.2679837200    0.2851297300   -2.2867536700        
  C     6    6     2.1285900100   -0.2535069600    2.1993448600        
  C     7    6     3.5096699900    0.0491470500   -0.0030301700        
  H     8    1    -5.2360393300   -2.3263659700    0.8673061800        
  H     9    1    -5.3517620400    1.6481447500    1.3409217500        
  H    10    1    -1.3260875200    0.4019365300   -4.1451509600        
  H    11    1    -1.5448115400   -0.5543420500    3.8263524900        
  H    12    1     3.3318141500    0.5199799700   -3.9976458500        
  H    13    1     3.0845146800   -0.4378414600    3.9798216900        
  H    14    1     5.5368142800    0.0998677000    0.0666404700        
[5D]
[7F]
[GTO]
  1  0
   s    12 1.00
  0.114200D+05  0.172695D-04
  0.171200D+04  0.134411D-03
  0.389300D+03  0.694561D-03
  0.110000D+03  0.278531D-02
  0.355700D+02  0.863457D-02
  0.125400D+02  0.199805D-01
  0.464400D+01  0.262908D-01
  0.129300D+01 -0.243845D-01
  0.511800D+00 -0.924934D-01
  0.178700D+00 -0.339683D+00
  0.246240D-01  0.345111D+00
  0.112530D-01  0.752750D+00
   s    10 1.00
  0.114200D+05  0.523000D-03
  0.171200D+04  0.404500D-02
  0.389300D+03  0.207750D-01
  0.110000D+03  0.807269D-01
  0.355700D+02  0.233074D+00
  0.125400D+02  0.433501D+00
  0.464400D+01  0.347472D+00
  0.129300D+01  0.412620D-01
  0.511800D+00 -0.850799D-02
  0.178700D+00  0.238400D-02
   s    10 1.00
  0.114200D+05 -0.115000D-03
  0.171200D+04 -0.895000D-03
  0.389300D+03 -0.462400D-02
  0.110000D+03 -0.185280D-01
  0.355700D+02 -0.573390D-01
  0.125400D+02 -0.132076D+00
  0.464400D+01 -0.172510D+00
  0.129300D+01  0.151814D+00
  0.511800D+00  0.599944D+00
  0.178700D+00  0.387462D+00
   s     1 1.00
  0.129300D+01  0.100000D+01
   s     1 1.00
  0.178700D+00  0.100000D+01
   p     5 1.00
  0.266300D+02  0.146700D-01
  0.594800D+01  0.917640D-01
  0.174200D+01  0.298683D+00
  0.555000D+00  0.498487D+00
  0.172500D+00  0.337023D+00
   p     1 1.00
  0.174200D+01  0.100000D+01
   p     1 1.00
  0.555000D+00  0.100000D+01
   d     1 1.00
  0.165400D+01  0.100000D+01
   d     1 1.00
  0.469000D+00  0.100000D+01
   f     1 1.00
  0.109300D+01  0.100000D+01
  
  2  0
   s    10 1.00
  0.823600D+04  0.531000D-03
  0.123500D+04  0.410800D-02
  0.280800D+03  0.210870D-01
  0.792700D+02  0.818530D-01
  0.255900D+02  0.234817D+00
  0.899700D+01  0.434401D+00
  0.331900D+01  0.346129D+00
  0.905900D+00  0.393780D-01
  0.364300D+00 -0.898300D-02
  0.128500D+00  0.238500D-02
   s    10 1.00
  0.823600D+04 -0.113000D-03
  0.123500D+04 -0.878000D-03
  0.280800D+03 -0.454000D-02
  0.792700D+02 -0.181330D-01
  0.255900D+02 -0.557600D-01
  0.899700D+01 -0.126895D+00
  0.331900D+01 -0.170352D+00
  0.905900D+00  0.140382D+00
  0.364300D+00  0.598684D+00
  0.128500D+00  0.395389D+00
   s     1 1.00
  0.905900D+00  0.100000D+01
   s     1 1.00
  0.364300D+00  0.100000D+01
   p     5 1.00
  0.187100D+02  0.140310D-01
  0.413300D+01  0.868660D-01
  0.120000D+01  0.290216D+00
  0.382700D+00  0.501008D+00
  0.120900D+00  0.343406D+00
   p     1 1.00
  0.382700D+00  0.100000D+01
   p     1 1.00
  0.120900D+00  0.100000D+01
   d     1 1.00
  0.109700D+01  0.100000D+01
   d     1 1.00
  0.318000D+00  0.100000D+01
   f     1 1.00
  0.761000D+00  0.100000D+01
  
  3  0
   s    10 1.00
  0.823600D+04  0.531000D-03
  0.123500D+04  0.410800D-02
  0.280800D+03  0.210870D-01
  0.792700D+02  0.818530D-01
  0.255900D+02  0.234817D+00
  0.899700D+01  0.434401D+00
  0.331900D+01  0.346129D+00
  0.905900D+00  0.393780D-01
  0.364300D+00 -0.898300D-02
  0.128500D+00  0.238500D-02
   s    10 1.00
  0.823600D+04 -0.113000D-03
  0.123500D+04 -0.878000D-03
  0.280800D+03 -0.454000D-02
  0.792700D+02 -0.181330D-01
  0.255900D+02 -0.557600D-01
  0.899700D+01 -0.126895D+00
  0.331900D+01 -0.170352D+00
  0.905900D+00  0.140382D+00
  0.364300D+00  0.598684D+00
  0.128500D+00  0.395389D+00
   s     1 1.00
  0.905900D+00  0.100000D+01
   s     1 1.00
  0.364300D+00  0.100000D+01
   p     5 1.00
  0.187100D+02  0.140310D-01
  0.413300D+01  0.868660D-01
  0.120000D+01  0.290216D+00
  0.382700D+00  0.501008D+00
  0.120900D+00  0.343406D+00
   p     1 1.00
  0.382700D+00  0.100000D+01
   p     1 1.00
  0.120900D+00  0.100000D+01
   d     1 1.00
  0.109700D+01  0.100000D+01
   d     1 1.00
  0.318000D+00  0.100000D+01
   f     1 1.00
  0.761000D+00  0.100000D+01
  
  4  0
   s    10 1.00
  0.823600D+04  0.531000D-03
  0.123500D+04  0.410800D-02
  0.280800D+03  0.210870D-01
  0.792700D+02  0.818530D-01
  0.255900D+02  0.234817D+00
  0.899700D+01  0.434401D+00
  0.331900D+01  0.346129D+00
  0.905900D+00  0.393780D-01
  0.364300D+00 -0.898300D-02
  0.128500D+00  0.238500D-02
   s    10 1.00
  0.823600D+04 -0.113000D-03
  0.123500D+04 -0.878000D-03
  0.280800D+03 -0.454000D-02
  0.792700D+02 -0.181330D-01
  0.255900D+02 -0.557600D-01
  0.899700D+01 -0.126895D+00
  0.331900D+01 -0.170352D+00
  0.905900D+00  0.140382D+00
  0.364300D+00  0.598684D+00
  0.128500D+00  0.395389D+00
   s     1 1.00
  0.905900D+00  0.100000D+01
   s     1 1.00
  0.364300D+00  0.100000D+01
   p     5 1.00
  0.187100D+02  0.140310D-01
  0.413300D+01  0.868660D-01
  0.120000D+01  0.290216D+00
  0.382700D+00  0.501008D+00
  0.120900D+00  0.343406D+00
   p     1 1.00
  0.382700D+00  0.100000D+01
   p     1 1.00
  0.120900D+00  0.100000D+01
   d     1 1.00
  0.109700D+01  0.100000D+01
   d     1 1.00
  0.318000D+00  0.100000D+01
   f     1 1.00
  0.761000D+00  0.100000D+01
  
  5  0
   s    10 1.00
  0.823600D+04  0.531000D-03
  0.123500D+04  0.410800D-02
  0.280800D+03  0.210870D-01
  0.792700D+02  0.818530D-01
  0.255900D+02  0.234817D+00
  0.899700D+01  0.434401D+00
  0.331900D+01  0.346129D+00
  0.905900D+00  0.393780D-01
  0.364300D+00 -0.898300D-02
  0.128500D+00  0.238500D-02
   s    10 1.00
  0.823600D+04 -0.113000D-03
  0.123500D+04 -0.878000D-03
  0.280800D+03 -0.454000D-02
  0.792700D+02 -0.181330D-01
  0.255900D+02 -0.557600D-01
  0.899700D+01 -0.126895D+00
  0.331900D+01 -0.170352D+00
  0.905900D+00  0.140382D+00
  0.364300D+00  0.598684D+00
  0.128500D+00  0.395389D+00
   s     1 1.00
  0.905900D+00  0.100000D+01
   s     1 1.00
  0.364300D+00  0.100000D+01
   p     5 1.00
  0.187100D+02  0.140310D-01
  0.413300D+01  0.868660D-01
  0.120000D+01  0.290216D+00
  0.382700D+00  0.501008D+00
  0.120900D+00  0.343406D+00
   p     1 1.00
  0.382700D+00  0.100000D+01
   p     1 1.00
  0.120900D+00  0.100000D+01
   d     1 1.00
  0.109700D+01  0.100000D+01
   d     1 1.00
  0.318000D+00  0.100000D+01
   f     1 1.00
  0.761000D+00  0.100000D+01
  
  6  0
   s    10 1.00
  0.823600D+04  0.531000D-03
  0.123500D+04  0.410800D-02
  0.280800D+03  0.210870D-01
  0.792700D+02  0.818530D-01
  0.255900D+02  0.234817D+00
  0.899700D+01  0.434401D+00
  0.331900D+01  0.346129D+00
  0.905900D+00  0.393780D-01
  0.364300D+00 -0.898300D-02
  0.128500D+00  0.238500D-02
   s    10 1.00
  0.823600D+04 -0.113000D-03
  0.123500D+04 -0.878000D-03
  0.280800D+03 -0.454000D-02
  0.792700D+02 -0.181330D-01
  0.255900D+02 -0.557600D-01
  0.899700D+01 -0.126895D+00
  0.331900D+01 -0.170352D+00
  0.905900D+00  0.140382D+00
  0.364300D+00  0.598684D+00
  0.128500D+00  0.395389D+00
   s     1 1.00
  0.905900D+00  0.100000D+01
   s     1 1.00
  0.364300D+00  0.100000D+01
   p     5 1.00
  0.187100D+02  0.140310D-01
  0.413300D+01  0.868660D-01
  0.120000D+01  0.290216D+00
  0.382700D+00  0.501008D+00
  0.120900D+00  0.343406D+00
   p     1 1.00
  0.382700D+00  0.100000D+01
   p     1 1.00
  0.120900D+00  0.100000D+01
   d     1 1.00
  0.109700D+01  0.100000D+01
   d     1 1.00
  0.318000D+00  0.100000D+01
   f     1 1.00
  0.761000D+00  0.100000D+01
  
  7  0
   s    10 1.00
  0.823600D+04  0.531000D-03
  0.123500D+04  0.410800D-02
  0.280800D+03  0.210870D-01
  0.792700D+02  0.818530D-01
  0.255900D+02  0.234817D+00
  0.899700D+01  0.434401D+00
  0.331900D+01  0.346129D+00
  0.905900D+00  0.393780D-01
  0.364300D+00 -0.898300D-02
  0.128500D+00  0.238500D-02
   s    10 1.00
  0.823600D+04 -0.113000D-03
  0.123500D+04 -0.878000D-03
  0.280800D+03 -0.454000D-02
  0.792700D+02 -0.181330D-01
  0.255900D+02 -0.557600D-01
  0.899700D+01 -0.126895D+00
  0.331900D+01 -0.170352D+00
  0.905900D+00  0.140382D+00
  0.364300D+00  0.598684D+00
  0.128500D+00  0.395389D+00
   s     1 1.00
  0.905900D+00  0.100000D+01
   s     1 1.00
  0.364300D+00  0.100000D+01
   p     5 1.00
  0.187100D+02  0.140310D-01
  0.413300D+01  0.868660D-01
  0.120000D+01  0.290216D+00
  0.382700D+00  0.501008D+00
  0.120900D+00  0.343406D+00
   p     1 1.00
  0.382700D+00  0.100000D+01
   p     1 1.00
  0.120900D+00  0.100000D+01
   d     1 1.00
  0.109700D+01  0.100000D+01
   d     1 1.00
  0.318000D+00  0.100000D+01
   f     1 1.00
  0.761000D+00  0.100000D+01
  
  8  0
   s     4 1.00
  0.130100D+02  0.196850D-01
  0.196200D+01  0.137977D+00
  0.444600D+00  0.478148D+00
  0.122000D+00  0.501240D+00
   s     1 1.00
  0.122000D+00  0.100000D+01
   p     1 1.00
  0.727000D+00  0.100000D+01
  
  9  0
   s     4 1.00
  0.130100D+02  0.196850D-01
  0.196200D+01  0.137977D+00
  0.444600D+00  0.478148D+00
  0.122000D+00  0.501240D+00
   s     1 1.00
  0.122000D+00  0.100000D+01
   p     1 1.00
  0.727000D+00  0.100000D+01
  
 10  0
   s     4 1.00
  0.130100D+02  0.196850D-01
  0.196200D+01  0.137977D+00
  0.444600D+00  0.478148D+00
  0.122000D+00  0.501240D+00
   s     1 1.00
  0.122000D+00  0.100000D+01
   p     1 1.00
  0.727000D+00  0.100000D+01
  
 11  0
   s     4 1.00
  0.130100D+02  0.196850D-01
  0.196200D+01  0.137977D+00
  0.444600D+00  0.478148D+00
  0.122000D+00  0.501240D+00
   s     1 1.00
  0.122000D+00  0.100000D+01
   p     1 1.00
  0.727000D+00  0.100000D+01
  
 12  0
   s     4 1.00
  0.130100D+02  0.196850D-01
  0.196200D+01  0.137977D+00
  0.444600D+00  0.478148D+00
  0.122000D+00  0.501240D+00
   s     1 1.00
  0.122000D+00  0.100000D+01
   p     1 1.00
  0.727000D+00  0.100000D+01
  
 13  0
   s     4 1.00
  0.130100D+02  0.196850D-01
  0.196200D+01  0.137977D+00
  0.444600D+00  0.478148D+00
  0.122000D+00  0.501240D+00
   s     1 1.00
  0.122000D+00  0.100000D+01
   p     1 1.00
  0.727000D+00  0.100000D+01
  
 14  0
   s     4 1.00
  0.130100D+02  0.196850D-01
  0.196200D+01  0.137977D+00
  0.444600D+00  0.478148D+00
  0.122000D+00  0.501240D+00
   s     1 1.00
  0.122000D+00  0.100000D+01
   p     1 1.00
  0.727000D+00  0.100000D+01
  
[MO]
 Sym= __1_A__
 Ene=   1.00000000000000     
 Spin= Alpha
 Occup=    1.00000000000000     
                     1 -8.225665302665188E-005
                     2  0.998575431115062     
                     3 -1.995983426665704E-002
                     4  1.123852562224022E-003
                     5  7.001527636193637E-003
                     6  1.133756622287019E-002
                     7 -1.254889631391472E-003
                     8  1.330105680044627E-002
                     9 -1.700250711759579E-003
                    10  1.058903317217266E-004
                    11 -1.304053509299595E-003
                    12 -4.202460010845488E-003
                    13  4.388926216961905E-004
                    14 -4.709946697586258E-003
                    15  7.731623687611252E-005
                    16  2.059709736804806E-006
                    17 -2.659833578215079E-005
                    18  8.648508803261573E-005
                    19  4.887222640525875E-006
                    20  1.266686170575822E-004
                    21  6.912098382515398E-004
                    22 -3.593689477109029E-005
                    23  2.487621700562408E-004
                    24 -6.781360495665217E-005
                    25  5.454274858064696E-005
                    26 -5.059957370807150E-005
                    27  9.868322936630763E-006
                    28  2.594927821206522E-005
                    29  6.178538312809455E-006
                    30 -3.364529139595185E-005
                    31 -8.048937852109619E-007
                    32 -3.149040970406356E-004
                    33  4.691325801356681E-004
                    34  3.332832434466520E-004
                    35 -6.709069566052540E-005
                    36  4.849615555780665E-004
                    37  2.201678342460429E-004
                    38 -1.729120454025122E-003
                    39 -3.043532110692230E-004
                    40 -1.308710219945920E-004
                    41  1.023884385365547E-003
                    42  5.259842772376449E-003
                    43  4.276722154749048E-004
                    44 -2.303778061175483E-003
                    45 -9.410806605359080E-007
                    46 -1.476531332135242E-004
                    47 -5.559617283882514E-006
                    48  1.101370009495624E-005
                    49  1.827096485608890E-005
                    50  2.726302125979222E-004
                    51  6.091913355037493E-004
                    52 -1.492856271334429E-005
                    53 -1.974123129897671E-004
                    54 -8.410863480643794E-005
                    55  7.249899791194361E-005
                    56 -2.354930054786224E-005
                    57  7.340905298890940E-006
                    58  7.086174337239571E-005
                    59 -1.898421304234201E-007
                    60 -5.992490689493888E-005
                    61 -5.062014691410045E-006
                    62 -9.353377020491548E-004
                    63 -1.120389545195586E-003
                    64 -1.684924628841114E-004
                    65  3.405859070750622E-003
                    66 -2.712293275349233E-003
                    67 -1.980332678539999E-004
                    68  9.991440416239497E-004
                    69  8.905079440290238E-004
                    70 -6.380615441218526E-005
                    71  7.530372117278738E-004
                    72  1.457451644108133E-003
                    73  3.182107640905043E-004
                    74 -2.314264415936375E-003
                    75  5.969180727075042E-005
                    76 -9.460547232061500E-005
                    77 -2.201230615841304E-005
                    78  5.517146592090592E-005
                    79  1.457499067154459E-005
                    80  3.649589873141362E-004
                    81 -2.109471146763477E-004
                    82 -8.718378734774391E-005
                    83  3.676999906390780E-005
                    84  2.760424644668328E-005
                    85 -2.835215898977676E-005
                    86 -1.934437150586082E-004
                    87 -1.969716174565897E-005
                    88  2.632156718825708E-005
                    89  2.720551525588596E-005
                    90 -7.725900804128629E-005
                    91  2.544067012592375E-006
                    92 -5.935789309239779E-005
                    93 -5.012173141864894E-004
                    94  2.952257522164096E-004
                    95 -9.513043033955515E-004
                    96 -2.428148399325730E-004
                    97 -1.122838925574513E-004
                    98  8.829422329452520E-004
                    99  2.068866189163208E-004
                   100 -3.935966204025996E-005
                   101  3.808525276115703E-004
                   102 -2.149849757006949E-003
                   103 -1.359478750552675E-004
                   104  6.155655903600269E-004
                   105 -1.532090216333627E-005
                   106 -3.449254798207099E-005
                   107 -6.719963851898533E-007
                   108  2.350831310969510E-005
                   109  5.486163267658323E-006
                   110 -2.132998988636957E-004
                   111  1.239386149592596E-004
                   112  5.916861011066597E-005
                   113 -8.916782267553649E-005
                   114 -2.018353834109415E-005
                   115 -2.426709905538296E-005
                   116  3.607929893255662E-005
                   117 -6.397904946188774E-006
                   118  9.630106112868547E-007
                   119 -7.555264001448214E-006
                   120 -5.022815092707844E-006
                   121  2.942378367624946E-007
                   122 -3.579192097168280E-004
                   123 -1.866067777027386E-003
                   124  1.735126121596026E-004
                   125  8.520246495634848E-004
                   126  1.171908943075908E-003
                   127  5.667472638813891E-005
                   128 -1.892650247723423E-004
                   129  5.544822039529768E-004
                   130 -3.160426203787520E-005
                   131  4.006985670696920E-004
                   132  2.167468680263422E-003
                   133  4.357769609421812E-006
                   134  4.930283373871009E-004
                   135  6.905732839341565E-005
                   136 -2.725688031797339E-005
                   137 -8.528697968687685E-006
                   138 -5.571810257230578E-005
                   139  3.311446234650769E-008
                   140  2.621161794193607E-004
                   141  2.198545052101256E-004
                   142  6.586135387263591E-006
                   143 -4.532300430877096E-004
                   144 -5.265889052769271E-005
                   145 -2.077484623409542E-005
                   146 -4.857784334255044E-005
                   147 -8.610796180016912E-006
                   148  4.971817796927752E-006
                   149 -6.022972681049252E-006
                   150 -1.052593759384725E-004
                   151  8.471365006365692E-006
                   152 -2.066794135224703E-004
                   153 -6.506724693523153E-004
                   154 -3.810518417116380E-005
                   155  7.212595572055454E-004
                   156  2.786375507656450E-004
                   157  1.292111997649637E-005
                   158 -4.034793755478130E-005
                   159 -1.849534892789510E-004
                   160 -1.419207230886131E-005
                   161  7.390654478355523E-005
                   162 -6.094196096587158E-004
                   163 -1.142833408278961E-004
                   164  8.101419196897367E-004
                   165 -8.020631656711653E-006
                   166 -9.928328230478887E-006
                   167 -5.016783183034017E-007
                   168  1.555392012356621E-005
                   169  2.092222515939953E-006
                   170 -1.746422971094410E-005
                   171  5.778026983174160E-005
                   172  1.206177746555622E-005
                   173 -5.512027756041858E-005
                   174 -1.014510072130981E-005
                   175 -8.306631149019102E-006
                   176 -1.067355326598899E-005
                   177 -7.239193588750517E-007
                   178 -1.075817205927815E-005
                   179  1.071276426318930E-006
                   180 -2.198970115008864E-006
                   181  1.756011624838714E-006
                   182 -1.713663851815638E-004
                   183 -4.179084835070804E-004
                   184  4.437354154987407E-005
                   185  2.822651908063177E-004
                   186 -1.894559507075617E-004
                   187 -3.778068794190148E-006
                   188 -1.458647504661633E-005
                   189  1.648008921246542E-004
                   190 -4.037877712734473E-005
                   191  3.791197746958737E-004
                   192 -5.694774953355413E-004
                   193 -2.087440356895205E-004
                   194  1.612601951170736E-003
                   195  1.941738106693294E-005
                   196 -3.273666694555121E-006
                   197 -2.718044701338844E-006
                   198 -1.193767060904588E-005
                   199 -2.958911906363833E-007
                   200 -9.566435563625762E-005
                   201 -2.903871284186256E-004
                   202  7.313053891053494E-006
                   203  3.317886608663132E-005
                   204  3.654123818028290E-005
                   205  1.519608523130869E-006
                   206  9.130013602247435E-006
                   207 -2.791758045564395E-006
                   208  1.799228713561079E-005
                   209 -1.497367870664046E-006
                   210 -5.708474450457632E-006
                   211 -2.152361005820789E-006
                   212 -1.169993696202109E-003
                   213  8.923282801039428E-004
                   214  7.370055687954106E-005
                   215 -5.531205094975599E-005
                   216  6.045218560359403E-006
                   217 -1.169993563521525E-003
                   218  8.923281501051001E-004
                   219  7.044556344065609E-005
                   220  5.648086131727053E-005
                   221  1.936682909071884E-005
                   222  5.968972287007512E-004
                   223 -1.269293426382506E-003
                   224 -7.622304309186550E-005
                   225 -1.578457985580165E-005
                   226  1.138373783493976E-004
                   227  8.225773166834152E-004
                   228 -1.007760773575741E-003
                   229  2.003810073799309E-006
                   230  1.189842210666618E-005
                   231 -9.935981531668542E-005
                   232  7.162992655435184E-004
                   233 -6.027099506688707E-004
                   234 -8.644225825741239E-006
                   235 -5.542920278750251E-006
                   236  4.440354013382417E-005
                   237 -6.485855754943149E-005
                   238 -4.051362723993010E-004
                   239 -9.448740892070589E-007
                   240 -1.184309903725597E-006
                   241  9.707475180486241E-006
                   242 -2.974015101748246E-004
                   243  1.945801458566467E-004
                   244  4.308523060183708E-005
                   245  1.195365906813467E-006
                   246  4.959028391315192E-007
 Sym= __2_A__
 Ene=   2.00000000000000     
 Spin= Alpha
 Occup=    1.00000000000000     
                     1 -1.980199985915491E-005
                     2 -1.524947366967476E-004
                     3  8.733566852288067E-004
                     4  2.583140162358331E-007
                     5  9.401359207555663E-004
                     6  1.712548139728564E-003
                     7 -1.880473449068410E-005
                     8  5.762490114019553E-004
                     9 -1.293392784806765E-004
                    10  3.166555810346451E-006
                    11 -5.817587085372562E-005
                    12  1.159214213043687E-004
                    13  1.755294224340262E-005
                    14 -1.189778396194489E-004
                    15 -5.034711755900098E-005
                    16  2.967480427350151E-005
                    17  4.479532057430017E-006
                    18  5.740264676843072E-005
                    19 -2.091538374926084E-007
                    20  1.623734128984301E-005
                    21 -5.402188013770875E-005
                    22 -1.953932992712914E-005
                    23  1.199268445075360E-004
                    24  1.350021156627526E-005
                    25 -2.412292192713884E-005
                    26  1.199813119050668E-004
                    27  7.422583170717940E-006
                    28 -5.646779832486140E-005
                    29 -1.203285109025902E-005
                    30  9.649966798998090E-005
                    31 -3.431922358829494E-008
                    32   1.00074967107306     
                    33  8.672112568930065E-003
                    34  2.834515467595315E-003
                    35 -8.438402748427765E-003
                    36 -1.461636244752214E-003
                    37 -4.471035265242416E-005
                    38  1.806717325678448E-005
                    39  4.209936740159997E-004
                    40  4.799660238310721E-005
                    41 -2.999145717567748E-004
                    42  2.565697870312060E-003
                    43  3.772510934970043E-005
                    44  3.103168919535587E-004
                    45  3.035852024299319E-004
                    46  9.345254859916785E-006
                    47 -1.033284319573843E-004
                    48  3.307233235485594E-004
                    49  1.851942401848833E-005
                    50 -1.022117190299279E-003
                    51 -3.225497608518094E-004
                    52  2.155185075337214E-004
                    53 -9.231736501105948E-005
                    54  3.233982629502259E-005
                    55 -3.234613051075270E-005
                    56  2.555172752927130E-004
                    57  4.263055054115570E-006
                    58 -3.143872225682848E-005
                    59 -3.827955263589720E-005
                    60  8.412135812760941E-005
                    61 -2.459909303216426E-006
                    62  1.973586136314049E-002
                    63 -1.550948993603729E-003
                    64 -2.843721057509343E-004
                    65  2.805114755720108E-003
                    66 -1.872799082867463E-004
                    67 -4.431157331491325E-005
                    68  3.260962033969214E-004
                    69 -3.253492693681745E-006
                    70 -4.397459569552715E-005
                    71  3.682336503884037E-004
                    72  2.058839151786614E-004
                    73  2.157233719703106E-004
                    74 -1.760013556070557E-003
                    75  5.380316834170815E-006
                    76  1.997133335847761E-005
                    77  4.366694370979926E-006
                    78 -4.042477343910474E-005
                    79 -4.753082038405910E-006
                    80 -5.217964350134509E-004
                    81 -3.507005082795598E-004
                    82  2.262792694261619E-006
                    83  7.967954132880896E-004
                    84  8.825752512887007E-005
                    85  3.474356194846219E-005
                    86  1.139045171582445E-004
                    87  1.963202509781115E-005
                    88 -2.791426403263716E-005
                    89 -2.748824506782818E-005
                    90 -2.624793440988425E-005
                    91  6.774307610399351E-006
                    92  1.968958922976825E-002
                    93 -1.780197690980915E-003
                    94 -3.302486107809386E-004
                    95  3.367279381930881E-003
                    96 -1.592435888825406E-004
                    97  2.864363704332515E-005
                    98 -2.792820270803355E-004
                    99 -1.089620027261923E-004
                   100  9.480566132530879E-005
                   101 -8.222195846668753E-004
                   102  2.465288580256428E-004
                   103 -1.708816823950645E-004
                   104  1.494251351299764E-003
                   105  6.077807249269228E-007
                   106  7.426363309168327E-007
                   107  2.244170032151655E-006
                   108 -1.940038069094856E-005
                   109 -1.227050118217063E-006
                   110 -1.431894760197892E-004
                   111  4.890737546662731E-004
                   112 -2.854255912766890E-005
                   113  6.043003873325100E-004
                   114 -2.301073733208041E-005
                   115 -4.253848159070824E-005
                   116  9.038716531863531E-005
                   117 -1.376651708617895E-005
                   118  1.911978707758058E-005
                   119 -2.046871501172272E-005
                   120 -2.960874611931195E-005
                   121 -1.866876826909406E-007
                   122  1.026699662844910E-004
                   123 -6.673127636744959E-004
                   124  2.388412118346811E-004
                   125 -3.765284736731336E-004
                   126 -1.771489972475705E-004
                   127 -9.338972127648047E-008
                   128 -4.250350820569752E-005
                   129  6.294742016599279E-004
                   130  1.332712397296940E-005
                   131  4.197267003408152E-005
                   132  4.020019104074058E-004
                   133 -3.634075796318296E-005
                   134  4.031946298828763E-004
                   135  7.431708154302711E-007
                   136  3.686833449160368E-005
                   137  5.363606574799164E-006
                   138 -3.645988078042038E-005
                   139 -6.540692724947296E-006
                   140  1.813556133133208E-004
                   141 -2.560518358111802E-004
                   142 -1.887323728047353E-005
                   143 -2.210564181177858E-004
                   144  1.772078569554062E-005
                   145 -1.247616684096447E-005
                   146  1.530655139798669E-005
                   147 -2.087648519189977E-006
                   148 -5.956526603622192E-006
                   149 -6.358343639480777E-006
                   150 -2.072169120155945E-005
                   151  2.717841246688072E-006
                   152  1.576669957784067E-004
                   153 -7.137514050800191E-004
                   154  2.270721383530203E-004
                   155 -1.230533278252704E-004
                   156 -1.823194873933589E-004
                   157 -8.272402145079891E-006
                   158  2.487465817658866E-005
                   159  4.878905539085915E-004
                   160  1.227036520636593E-005