[Molden Format]
[Atoms] AU
  N     1    7     0.0000000000   -4.2907334100    0.0000000000        
  C     2    6     0.0000000000   -1.7772236300    0.0000000000        
  C     3    6    -2.3389203600   -0.4111016300    0.0000000000        
  C     4    6     2.3389203600   -0.4111016300    0.0000000000        
  C     5    6    -2.2998668500    2.1639215300    0.0000000000        
  C     6    6     2.2998668500    2.1639215300    0.0000000000        
  C     7    6     0.0000000000    3.4755251800    0.0000000000        
  H     8    1    -2.7341110200   -5.9774504400    0.0000000000        
  H     9    1     1.9299607200   -5.4813572000    0.0000000000        
  H    10    1    -4.0745407300   -1.4447408500    0.0000000000        
  H    11    1     4.0745407300   -1.4447408500    0.0000000000        
  H    12    1    -4.0420632100    3.1963889500    0.0000000000        
  H    13    1     4.0420632100    3.1963889500    0.0000000000        
  H    14    1     0.0000000000    5.5020335600    0.0000000000        
[5D]
[7F]
[GTO]
  1  0
   s    12 1.00
  0.114200D+05  0.172695D-04
  0.171200D+04  0.134411D-03
  0.389300D+03  0.694561D-03
  0.110000D+03  0.278531D-02
  0.355700D+02  0.863457D-02
  0.125400D+02  0.199805D-01
  0.464400D+01  0.262908D-01
  0.129300D+01 -0.243845D-01
  0.511800D+00 -0.924934D-01
  0.178700D+00 -0.339683D+00
  0.246240D-01  0.345111D+00
  0.112530D-01  0.752750D+00
   s    10 1.00
  0.114200D+05  0.523000D-03
  0.171200D+04  0.404500D-02
  0.389300D+03  0.207750D-01
  0.110000D+03  0.807269D-01
  0.355700D+02  0.233074D+00
  0.125400D+02  0.433501D+00
  0.464400D+01  0.347472D+00
  0.129300D+01  0.412620D-01
  0.511800D+00 -0.850799D-02
  0.178700D+00  0.238400D-02
   s    10 1.00
  0.114200D+05 -0.115000D-03
  0.171200D+04 -0.895000D-03
  0.389300D+03 -0.462400D-02
  0.110000D+03 -0.185280D-01
  0.355700D+02 -0.573390D-01
  0.125400D+02 -0.132076D+00
  0.464400D+01 -0.172510D+00
  0.129300D+01  0.151814D+00
  0.511800D+00  0.599944D+00
  0.178700D+00  0.387462D+00
   s     1 1.00
  0.129300D+01  0.100000D+01
   s     1 1.00
  0.178700D+00  0.100000D+01
   p     5 1.00
  0.266300D+02  0.146700D-01
  0.594800D+01  0.917640D-01
  0.174200D+01  0.298683D+00
  0.555000D+00  0.498487D+00
  0.172500D+00  0.337023D+00
   p     1 1.00
  0.174200D+01  0.100000D+01
   p     1 1.00
  0.555000D+00  0.100000D+01
   d     1 1.00
  0.165400D+01  0.100000D+01
   d     1 1.00
  0.469000D+00  0.100000D+01
   f     1 1.00
  0.109300D+01  0.100000D+01
  
  2  0
   s    10 1.00
  0.823600D+04  0.531000D-03
  0.123500D+04  0.410800D-02
  0.280800D+03  0.210870D-01
  0.792700D+02  0.818530D-01
  0.255900D+02  0.234817D+00
  0.899700D+01  0.434401D+00
  0.331900D+01  0.346129D+00
  0.905900D+00  0.393780D-01
  0.364300D+00 -0.898300D-02
  0.128500D+00  0.238500D-02
   s    10 1.00
  0.823600D+04 -0.113000D-03
  0.123500D+04 -0.878000D-03
  0.280800D+03 -0.454000D-02
  0.792700D+02 -0.181330D-01
  0.255900D+02 -0.557600D-01
  0.899700D+01 -0.126895D+00
  0.331900D+01 -0.170352D+00
  0.905900D+00  0.140382D+00
  0.364300D+00  0.598684D+00
  0.128500D+00  0.395389D+00
   s     1 1.00
  0.905900D+00  0.100000D+01
   s     1 1.00
  0.364300D+00  0.100000D+01
   p     5 1.00
  0.187100D+02  0.140310D-01
  0.413300D+01  0.868660D-01
  0.120000D+01  0.290216D+00
  0.382700D+00  0.501008D+00
  0.120900D+00  0.343406D+00
   p     1 1.00
  0.382700D+00  0.100000D+01
   p     1 1.00
  0.120900D+00  0.100000D+01
   d     1 1.00
  0.109700D+01  0.100000D+01
   d     1 1.00
  0.318000D+00  0.100000D+01
   f     1 1.00
  0.761000D+00  0.100000D+01
  
  3  0
   s    10 1.00
  0.823600D+04  0.531000D-03
  0.123500D+04  0.410800D-02
  0.280800D+03  0.210870D-01
  0.792700D+02  0.818530D-01
  0.255900D+02  0.234817D+00
  0.899700D+01  0.434401D+00
  0.331900D+01  0.346129D+00
  0.905900D+00  0.393780D-01
  0.364300D+00 -0.898300D-02
  0.128500D+00  0.238500D-02
   s    10 1.00
  0.823600D+04 -0.113000D-03
  0.123500D+04 -0.878000D-03
  0.280800D+03 -0.454000D-02
  0.792700D+02 -0.181330D-01
  0.255900D+02 -0.557600D-01
  0.899700D+01 -0.126895D+00
  0.331900D+01 -0.170352D+00
  0.905900D+00  0.140382D+00
  0.364300D+00  0.598684D+00
  0.128500D+00  0.395389D+00
   s     1 1.00
  0.905900D+00  0.100000D+01
   s     1 1.00
  0.364300D+00  0.100000D+01
   p     5 1.00
  0.187100D+02  0.140310D-01
  0.413300D+01  0.868660D-01
  0.120000D+01  0.290216D+00
  0.382700D+00  0.501008D+00
  0.120900D+00  0.343406D+00
   p     1 1.00
  0.382700D+00  0.100000D+01
   p     1 1.00
  0.120900D+00  0.100000D+01
   d     1 1.00
  0.109700D+01  0.100000D+01
   d     1 1.00
  0.318000D+00  0.100000D+01
   f     1 1.00
  0.761000D+00  0.100000D+01
  
  4  0
   s    10 1.00
  0.823600D+04  0.531000D-03
  0.123500D+04  0.410800D-02
  0.280800D+03  0.210870D-01
  0.792700D+02  0.818530D-01
  0.255900D+02  0.234817D+00
  0.899700D+01  0.434401D+00
  0.331900D+01  0.346129D+00
  0.905900D+00  0.393780D-01
  0.364300D+00 -0.898300D-02
  0.128500D+00  0.238500D-02
   s    10 1.00
  0.823600D+04 -0.113000D-03
  0.123500D+04 -0.878000D-03
  0.280800D+03 -0.454000D-02
  0.792700D+02 -0.181330D-01
  0.255900D+02 -0.557600D-01
  0.899700D+01 -0.126895D+00
  0.331900D+01 -0.170352D+00
  0.905900D+00  0.140382D+00
  0.364300D+00  0.598684D+00
  0.128500D+00  0.395389D+00
   s     1 1.00
  0.905900D+00  0.100000D+01
   s     1 1.00
  0.364300D+00  0.100000D+01
   p     5 1.00
  0.187100D+02  0.140310D-01
  0.413300D+01  0.868660D-01
  0.120000D+01  0.290216D+00
  0.382700D+00  0.501008D+00
  0.120900D+00  0.343406D+00
   p     1 1.00
  0.382700D+00  0.100000D+01
   p     1 1.00
  0.120900D+00  0.100000D+01
   d     1 1.00
  0.109700D+01  0.100000D+01
   d     1 1.00
  0.318000D+00  0.100000D+01
   f     1 1.00
  0.761000D+00  0.100000D+01
  
  5  0
   s    10 1.00
  0.823600D+04  0.531000D-03
  0.123500D+04  0.410800D-02
  0.280800D+03  0.210870D-01
  0.792700D+02  0.818530D-01
  0.255900D+02  0.234817D+00
  0.899700D+01  0.434401D+00
  0.331900D+01  0.346129D+00
  0.905900D+00  0.393780D-01
  0.364300D+00 -0.898300D-02
  0.128500D+00  0.238500D-02
   s    10 1.00
  0.823600D+04 -0.113000D-03
  0.123500D+04 -0.878000D-03
  0.280800D+03 -0.454000D-02
  0.792700D+02 -0.181330D-01
  0.255900D+02 -0.557600D-01
  0.899700D+01 -0.126895D+00
  0.331900D+01 -0.170352D+00
  0.905900D+00  0.140382D+00
  0.364300D+00  0.598684D+00
  0.128500D+00  0.395389D+00
   s     1 1.00
  0.905900D+00  0.100000D+01
   s     1 1.00
  0.364300D+00  0.100000D+01
   p     5 1.00
  0.187100D+02  0.140310D-01
  0.413300D+01  0.868660D-01
  0.120000D+01  0.290216D+00
  0.382700D+00  0.501008D+00
  0.120900D+00  0.343406D+00
   p     1 1.00
  0.382700D+00  0.100000D+01
   p     1 1.00
  0.120900D+00  0.100000D+01
   d     1 1.00
  0.109700D+01  0.100000D+01
   d     1 1.00
  0.318000D+00  0.100000D+01
   f     1 1.00
  0.761000D+00  0.100000D+01
  
  6  0
   s    10 1.00
  0.823600D+04  0.531000D-03
  0.123500D+04  0.410800D-02
  0.280800D+03  0.210870D-01
  0.792700D+02  0.818530D-01
  0.255900D+02  0.234817D+00
  0.899700D+01  0.434401D+00
  0.331900D+01  0.346129D+00
  0.905900D+00  0.393780D-01
  0.364300D+00 -0.898300D-02
  0.128500D+00  0.238500D-02
   s    10 1.00
  0.823600D+04 -0.113000D-03
  0.123500D+04 -0.878000D-03
  0.280800D+03 -0.454000D-02
  0.792700D+02 -0.181330D-01
  0.255900D+02 -0.557600D-01
  0.899700D+01 -0.126895D+00
  0.331900D+01 -0.170352D+00
  0.905900D+00  0.140382D+00
  0.364300D+00  0.598684D+00
  0.128500D+00  0.395389D+00
   s     1 1.00
  0.905900D+00  0.100000D+01
   s     1 1.00
  0.364300D+00  0.100000D+01
   p     5 1.00
  0.187100D+02  0.140310D-01
  0.413300D+01  0.868660D-01
  0.120000D+01  0.290216D+00
  0.382700D+00  0.501008D+00
  0.120900D+00  0.343406D+00
   p     1 1.00
  0.382700D+00  0.100000D+01
   p     1 1.00
  0.120900D+00  0.100000D+01
   d     1 1.00
  0.109700D+01  0.100000D+01
   d     1 1.00
  0.318000D+00  0.100000D+01
   f     1 1.00
  0.761000D+00  0.100000D+01
  
  7  0
   s    10 1.00
  0.823600D+04  0.531000D-03
  0.123500D+04  0.410800D-02
  0.280800D+03  0.210870D-01
  0.792700D+02  0.818530D-01
  0.255900D+02  0.234817D+00
  0.899700D+01  0.434401D+00
  0.331900D+01  0.346129D+00
  0.905900D+00  0.393780D-01
  0.364300D+00 -0.898300D-02
  0.128500D+00  0.238500D-02
   s    10 1.00
  0.823600D+04 -0.113000D-03
  0.123500D+04 -0.878000D-03
  0.280800D+03 -0.454000D-02
  0.792700D+02 -0.181330D-01
  0.255900D+02 -0.557600D-01
  0.899700D+01 -0.126895D+00
  0.331900D+01 -0.170352D+00
  0.905900D+00  0.140382D+00
  0.364300D+00  0.598684D+00
  0.128500D+00  0.395389D+00
   s     1 1.00
  0.905900D+00  0.100000D+01
   s     1 1.00
  0.364300D+00  0.100000D+01
   p     5 1.00
  0.187100D+02  0.140310D-01
  0.413300D+01  0.868660D-01
  0.120000D+01  0.290216D+00
  0.382700D+00  0.501008D+00
  0.120900D+00  0.343406D+00
   p     1 1.00
  0.382700D+00  0.100000D+01
   p     1 1.00
  0.120900D+00  0.100000D+01
   d     1 1.00
  0.109700D+01  0.100000D+01
   d     1 1.00
  0.318000D+00  0.100000D+01
   f     1 1.00
  0.761000D+00  0.100000D+01
  
  8  0
   s     4 1.00
  0.130100D+02  0.196850D-01
  0.196200D+01  0.137977D+00
  0.444600D+00  0.478148D+00
  0.122000D+00  0.501240D+00
   s     1 1.00
  0.122000D+00  0.100000D+01
   p     1 1.00
  0.727000D+00  0.100000D+01
  
  9  0
   s     4 1.00
  0.130100D+02  0.196850D-01
  0.196200D+01  0.137977D+00
  0.444600D+00  0.478148D+00
  0.122000D+00  0.501240D+00
   s     1 1.00
  0.122000D+00  0.100000D+01
   p     1 1.00
  0.727000D+00  0.100000D+01
  
 10  0
   s     4 1.00
  0.130100D+02  0.196850D-01
  0.196200D+01  0.137977D+00
  0.444600D+00  0.478148D+00
  0.122000D+00  0.501240D+00
   s     1 1.00
  0.122000D+00  0.100000D+01
   p     1 1.00
  0.727000D+00  0.100000D+01
  
 11  0
   s     4 1.00
  0.130100D+02  0.196850D-01
  0.196200D+01  0.137977D+00
  0.444600D+00  0.478148D+00
  0.122000D+00  0.501240D+00
   s     1 1.00
  0.122000D+00  0.100000D+01
   p     1 1.00
  0.727000D+00  0.100000D+01
  
 12  0
   s     4 1.00
  0.130100D+02  0.196850D-01
  0.196200D+01  0.137977D+00
  0.444600D+00  0.478148D+00
  0.122000D+00  0.501240D+00
   s     1 1.00
  0.122000D+00  0.100000D+01
   p     1 1.00
  0.727000D+00  0.100000D+01
  
 13  0
   s     4 1.00
  0.130100D+02  0.196850D-01
  0.196200D+01  0.137977D+00
  0.444600D+00  0.478148D+00
  0.122000D+00  0.501240D+00
   s     1 1.00
  0.122000D+00  0.100000D+01
   p     1 1.00
  0.727000D+00  0.100000D+01
  
 14  0
   s     4 1.00
  0.130100D+02  0.196850D-01
  0.196200D+01  0.137977D+00
  0.444600D+00  0.478148D+00
  0.122000D+00  0.501240D+00
   s     1 1.00
  0.122000D+00  0.100000D+01
   p     1 1.00
  0.727000D+00  0.100000D+01
  
[MO]
 Sym= __1_A'_
 Ene=   1.00000000000000     
 Spin= Alpha
 Occup=    1.00000000000000     
                     1  5.482180740388452E-005
                     2  0.998597334899648     
                     3  1.732518628358011E-003
                     4  1.483978213017643E-003
                     5  4.709579013332675E-003
                     6  3.340215622686666E-003
                     7  5.930579311794783E-003
                     8  0.000000000000000E+000
                     9 -7.531736914234465E-004
                    10 -4.442427546742857E-004
                    11  0.000000000000000E+000
                    12 -2.403801150064250E-003
                    13 -1.603052369019018E-003
                    14  0.000000000000000E+000
                    15 -7.472334663089761E-005
                    16  0.000000000000000E+000
                    17  0.000000000000000E+000
                    18 -2.346639962520320E-004
                    19 -5.215444012514965E-005
                    20  1.894270273622795E-004
                    21  0.000000000000000E+000
                    22  0.000000000000000E+000
                    23 -2.092002285941032E-004
                    24  5.736289484838199E-004
                    25  0.000000000000000E+000
                    26  8.617205215286984E-006
                    27 -5.469808856646277E-005
                    28  0.000000000000000E+000
                    29  0.000000000000000E+000
                    30  2.955893908072305E-005
                    31 -1.014296163151356E-004
                    32 -3.016497708108545E-004
                    33  1.291997224867444E-003
                    34  2.420974348336489E-004
                    35 -2.359908077294652E-004
                    36 -1.716345799347319E-004
                    37 -4.490731854259161E-003
                    38  0.000000000000000E+000
                    39  5.583535490542200E-004
                    40  1.254911926582552E-004
                    41  0.000000000000000E+000
                    42 -2.342876977545187E-003
                    43  5.218695611320547E-003
                    44  0.000000000000000E+000
                    45 -2.493942226336928E-005
                    46  0.000000000000000E+000
                    47  0.000000000000000E+000
                    48 -2.342645797214594E-004
                    49 -7.334746856421248E-006
                    50 -2.670733583552849E-004
                    51  0.000000000000000E+000
                    52  0.000000000000000E+000
                    53 -1.471731133219456E-005
                    54  8.561446704144683E-004
                    55  0.000000000000000E+000
                    56 -1.499546756776846E-005
                    57 -4.376815852795396E-005
                    58  0.000000000000000E+000
                    59  0.000000000000000E+000
                    60 -1.510635012232685E-005
                    61 -1.124487289742216E-004
                    62 -5.041011941358131E-004
                    63 -2.268478931972369E-003
                    64 -1.022404219977689E-004
                    65  2.177931741225453E-003
                    66 -6.692282272092714E-004
                    67  4.619684031419539E-004
                    68  0.000000000000000E+000
                    69  4.944167042666717E-004
                    70  7.756944372543968E-004
                    71  0.000000000000000E+000
                    72 -1.705522021403784E-003
                    73  7.698144779880367E-004
                    74  0.000000000000000E+000
                    75 -4.227708170883594E-005
                    76  0.000000000000000E+000
                    77  0.000000000000000E+000
                    78 -8.285215921981502E-005
                    79 -3.216628800931826E-005
                    80 -1.548338425042182E-004
                    81  0.000000000000000E+000
                    82  0.000000000000000E+000
                    83  1.015916428744925E-004
                    84  7.244071797625425E-005
                    85  0.000000000000000E+000
                    86  7.941869983992775E-006
                    87 -4.546721353423712E-005
                    88  0.000000000000000E+000
                    89  0.000000000000000E+000
                    90 -1.342821873823528E-005
                    91 -1.555863469683244E-004
                    92 -1.047278343640717E-004
                    93 -8.653880119558805E-004
                    94  2.151482615359097E-004
                    95 -4.169331606400182E-004
                    96  5.104176196362924E-004
                    97  5.985776218347695E-004
                    98  0.000000000000000E+000
                    99  4.553100981558587E-004
                   100  2.665215615814627E-004
                   101  0.000000000000000E+000
                   102  4.707621977823277E-004
                   103 -1.454926881065586E-003
                   104  0.000000000000000E+000
                   105 -2.701749054151883E-006
                   106  0.000000000000000E+000
                   107  0.000000000000000E+000
                   108 -5.887197895204526E-005
                   109 -2.059475289401992E-005
                   110  1.472154785914227E-004
                   111  0.000000000000000E+000
                   112  0.000000000000000E+000
                   113 -1.492499169661258E-004
                   114 -3.471360611015108E-005
                   115  0.000000000000000E+000
                   116 -2.544342059492404E-005
                   117 -3.101303556350885E-005
                   118  0.000000000000000E+000
                   119  0.000000000000000E+000
                   120  1.662817489014901E-005
                   121 -1.992498862649437E-005
                   122 -2.666568339515231E-004
                   123 -5.527679736943117E-004
                   124  1.725565970160118E-004
                   125  3.896487663163432E-004
                   126 -1.287996227997045E-005
                   127 -5.254449595135596E-004
                   128  0.000000000000000E+000
                   129  2.009169903875153E-004
                   130  6.024139778485582E-004
                   131  0.000000000000000E+000
                   132  3.608953643141606E-004
                   133  2.024040673170891E-003
                   134  0.000000000000000E+000
                   135  1.141412017923785E-005
                   136  0.000000000000000E+000
                   137  0.000000000000000E+000
                   138  4.436224685762116E-005
                   139  3.935861218586811E-007
                   140  2.074872898200733E-004
                   141  0.000000000000000E+000
                   142  0.000000000000000E+000
                   143  3.552927641953478E-004
                   144  2.535981022900159E-004
                   145  0.000000000000000E+000
                   146 -8.538645704389502E-006
                   147 -6.123182149928080E-005
                   148  0.000000000000000E+000
                   149  0.000000000000000E+000
                   150 -2.161741847069134E-005
                   151 -4.940970002231908E-005
                   152 -1.731419783708398E-004
                   153 -2.781550899341913E-004
                   154  2.952017792891538E-005
                   155  3.904660465097793E-004
                   156 -2.765286325809577E-005
                   157 -4.359871926057741E-004
                   158  0.000000000000000E+000
                   159  1.495204517224126E-005
                   160  2.693306541797097E-005
                   161  0.000000000000000E+000
                   162  7.127879562646340E-004
                   163 -3.326551088595428E-004
                   164  0.000000000000000E+000
                   165 -3.509091734746769E-006
                   166  0.000000000000000E+000
                   167  0.000000000000000E+000
                   168 -8.909292101659640E-006
                   169  5.916282762159601E-006
                   170  4.900705607617256E-005
                   171  0.000000000000000E+000
                   172  0.000000000000000E+000
                   173 -2.566271061186114E-006
                   174 -1.702217500060088E-005
                   175  0.000000000000000E+000
                   176  4.785668302043409E-006
                   177 -5.726004726194675E-006
                   178  0.000000000000000E+000
                   179  0.000000000000000E+000
                   180 -2.605323771595531E-005
                   181 -5.265423465153534E-006
                   182 -1.633535297134615E-004
                   183 -4.655125661608070E-004
                   184  4.935784484536689E-005
                   185  2.346693644414675E-004
                   186 -3.901157360805063E-005
                   187 -5.348667723830434E-005
                   188  0.000000000000000E+000
                   189  2.037596142854761E-004
                   190  6.219175807150454E-005
                   191  0.000000000000000E+000
                   192  1.323307974866921E-003
                   193 -1.541501416682749E-004
                   194  0.000000000000000E+000
                   195 -1.312760080969116E-006
                   196  0.000000000000000E+000
                   197  0.000000000000000E+000
                   198 -1.366134824029238E-005
                   199  7.586368037750700E-006
                   200  2.281982526164665E-005
                   201  0.000000000000000E+000
                   202  0.000000000000000E+000
                   203 -8.282442672316993E-005
                   204 -1.843356315908282E-004
                   205  0.000000000000000E+000
                   206 -5.431642029574086E-006
                   207 -6.057505254191425E-006
                   208  0.000000000000000E+000
                   209  0.000000000000000E+000
                   210  1.138299037707976E-005
                   211 -2.937836920526798E-006
                   212  2.064365611856595E-005
                   213  8.440478268218488E-005
                   214  9.981008780879896E-005
                   215  1.108719743951748E-004
                   216  0.000000000000000E+000
                   217  2.137280549470716E-004
                   218 -8.607424322784868E-004
                   219 -3.802192053405920E-004
                   220  1.889615890126274E-004
                   221  0.000000000000000E+000
                   222 -4.271698752581628E-004
                   223 -6.157630800032862E-004
                   224  6.089029741941111E-006
                   225 -7.127120554377407E-005
                   226  0.000000000000000E+000
                   227 -2.103841671584513E-004
                   228 -4.850646853195467E-004
                   229 -4.240596856759369E-006
                   230 -1.154483697491311E-005
                   231  0.000000000000000E+000
                   232 -5.720308317736165E-005
                   233 -5.649572189833824E-004
                   234  6.926341284634816E-006
                   235 -4.038343913894432E-006
                   236  0.000000000000000E+000
                   237 -1.576459881630352E-004
                   238 -3.708514263094668E-004
                   239  8.056642379706141E-006
                   240  3.539193480703513E-006
                   241  0.000000000000000E+000
                   242  1.475133520089955E-005
                   243 -3.333504864791915E-005
                   244 -3.965550098082937E-007
                   245  2.105096021425967E-005
                   246  0.000000000000000E+000
 Sym= __2_A'_
 Ene=   2.00000000000000     
 Spin= Alpha
 Occup=    1.00000000000000     
                     1 -5.192865671067481E-005
                     2 -3.417580065450458E-004
                     3  2.915576071659391E-003
                     4  1.586887656986313E-004
                     5  1.337701391641081E-003
                     6 -2.272707527745951E-004
                     7  2.917746072703561E-003
                     8  0.000000000000000E+000
                     9 -5.258099819156496E-005
                    10 -1.165440998904500E-004
                    11  0.000000000000000E+000
                    12  5.860640400254117E-005
                    13 -4.007552987060974E-004
                    14  0.000000000000000E+000
                    15  3.305920949639101E-005
                    16  0.000000000000000E+000
                    17  0.000000000000000E+000
                    18 -4.810651218391598E-005
                    19  1.117592816287724E-005
                    20 -1.163393772151350E-004
                    21  0.000000000000000E+000
                    22  0.000000000000000E+000
                    23  1.355205890688448E-004
                    24 -1.580770912285220E-005
                    25  0.000000000000000E+000
                    26 -1.394798375376365E-005
                    27  8.832437813353416E-005
                    28  0.000000000000000E+000
                    29  0.000000000000000E+000
                    30 -1.159660760428260E-005
                    31  1.490225170904527E-004
                    32   1.00102592975631     
                    33  9.298244577462447E-003
                    34  2.724612144438301E-003
                    35 -8.131247031100672E-003
                    36 -1.166822335775529E-004
                    37 -3.607970971076972E-003
                    38  0.000000000000000E+000
                    39  1.469848480667162E-004
                    40  4.820078283862996E-004
                    41  0.000000000000000E+000
                    42  2.630720600058140E-005
                    43  4.220635537661564E-003
                    44  0.000000000000000E+000
                    45 -5.685173907947264E-004
                    46  0.000000000000000E+000
                    47  0.000000000000000E+000
                    48 -1.996185894659553E-004
                    49 -2.689201567352756E-006
                    50  5.494592279129756E-004
                    51  0.000000000000000E+000
                    52  0.000000000000000E+000
                    53 -8.823075841980956E-004
                    54  5.010556021914064E-005
                    55  0.000000000000000E+000
                    56 -5.412810816929139E-006
                    57  9.324020498060264E-005
                    58  0.000000000000000E+000
                    59  0.000000000000000E+000
                    60  4.527147106120025E-006
                    61  3.987422958844147E-004
                    62  9.125725783297707E-003
                    63 -2.089803618401864E-003
                    64 -2.972776839634227E-004
                    65  3.069281815623244E-003
                    66 -2.360836552873562E-005
                    67  1.171552645251681E-004
                    68  0.000000000000000E+000
                    69  7.342505081362467E-004
                    70 -3.739859698816883E-006
                    71  0.000000000000000E+000
                    72 -2.056343606302834E-003
                    73  7.991196194367686E-005
                    74  0.000000000000000E+000
                    75  2.644976135541239E-005
                    76  0.000000000000000E+000
                    77  0.000000000000000E+000
                    78 -2.307131934525030E-006
                    79  1.664763629762720E-006
                    80 -4.131315025900514E-004
                    81  0.000000000000000E+000
                    82  0.000000000000000E+000
                    83 -5.855376749947786E-004
                    84 -3.751364289426208E-004
                    85  0.000000000000000E+000
                    86  3.253142679778990E-005
                    87 -5.888208654506338E-005
                    88  0.000000000000000E+000
                    89  0.000000000000000E+000
                    90  5.106998616831287E-005
                    91  1.403845421554894E-004
                    92  9.719008234390479E-003
                    93 -2.060914620243324E-003
                    94 -2.789242269745846E-004
                    95  3.006367366456053E-003
                    96  7.347112629086010E-006
                    97  8.032006334342861E-005
                    98  0.000000000000000E+000
                    99 -6.572563827462561E-004
                   100  5.722803640977091E-005
                   101  0.000000000000000E+000
                   102  2.030337883350556E-003
                   103  5.883843234224514E-005
                   104  0.000000000000000E+000
                   105  3.103105301658702E-005
                   106  0.000000000000000E+000
                   107  0.000000000000000E+000
                   108 -5.313688112560380E-006
                   109 -7.508361662607529E-006
                   110 -4.097260351312571E-004
                   111  0.000000000000000E+000
                   112  0.000000000000000E+000
                   113 -6.111023643648742E-004
                   114  3.593143547726660E-004
                   115  0.000000000000000E+000
                   116 -3.256639171584036E-005
                   117 -5.987228618305547E-005
                   118  0.000000000000000E+000
                   119  0.000000000000000E+000
                   120 -4.937851730485735E-005
                   121  1.371542567406302E-004
                   122 -1.544966528365823E-004
                   123 -6.707807288398744E-004
                   124  2.255683121072354E-004
                   125 -1.082953017655772E-004
                   126 -1.897694312343050E-006
                   127 -3.424596065362947E-004
                   128  0.000000000000000E+000
                   129 -6.212387541510407E-005
                   130  5.391142388120408E-004
                   131  0.000000000000000E+000
                   132  3.257113140998470E-004
                   133  7.626360030264516E-004
                   134  0.000000000000000E+000
                   135  1.889147878761408E-005
                   136  0.000000000000000E+000
                   137  0.000000000000000E+000
                   138  3.681215120680798E-006
                   139  5.288970478169109E-005
                   140  1.365715307251119E-004
                   141  0.000000000000000E+000
                   142  0.000000000000000E+000
                   143  2.426404625807492E-004
                   144 -1.819177671407675E-004
                   145  0.000000000000000E+000
                   146  7.179580298729614E-006
                   147 -3.358308100883298E-005
                   148  0.000000000000000E+000
                   149  0.000000000000000E+000
                   150 -4.760761048537779E-005
                   151  2.859812781901684E-005
                   152 -1.391499808963290E-004
                   153 -6.777571733863495E-004
                   154  2.298869027120500E-004
                   155 -1.365495795608822E-004
                   156  1.164771011640141E-006
                   157 -3.331125469307423E-004
                   158  0.000000000000000E+000
                   159  4.995221711671415E-005
                   160  5.630808625264399E-004