[Molden Format]
[Atoms] AU
  N     1    7     0.0000000000    0.0000000000   -4.3896059400        
  C     2    6     0.0000000000    0.0000000000   -1.7787405200        
  C     3    6     0.0000000000   -2.3347474200   -0.3922060100        
  C     4    6     0.0000000000    2.3347474200   -0.3922060100        
  C     5    6     0.0000000000   -2.3242454000    2.1775818300        
  C     6    6     0.0000000000    2.3242454000    2.1775818300        
  C     7    6     0.0000000000    0.0000000000    3.4748475600        
  H     8    1    -1.6486042200    0.0000000000   -5.3790611100        
  H     9    1     1.6486042200    0.0000000000   -5.3790611200        
  H    10    1     0.0000000000   -4.0457988600   -1.4652898000        
  H    11    1     0.0000000000    4.0457988600   -1.4652898000        
  H    12    1     0.0000000000   -4.0519040200    3.2320081000        
  H    13    1     0.0000000000    4.0519040200    3.2320081000        
  H    14    1     0.0000000000    0.0000000000    5.5038241200        
[5D]
[7F]
[GTO]
  1  0
   s    12 1.00
  0.114200D+05  0.172695D-04
  0.171200D+04  0.134411D-03
  0.389300D+03  0.694561D-03
  0.110000D+03  0.278531D-02
  0.355700D+02  0.863457D-02
  0.125400D+02  0.199805D-01
  0.464400D+01  0.262908D-01
  0.129300D+01 -0.243845D-01
  0.511800D+00 -0.924934D-01
  0.178700D+00 -0.339683D+00
  0.246240D-01  0.345111D+00
  0.112530D-01  0.752750D+00
   s    10 1.00
  0.114200D+05  0.523000D-03
  0.171200D+04  0.404500D-02
  0.389300D+03  0.207750D-01
  0.110000D+03  0.807269D-01
  0.355700D+02  0.233074D+00
  0.125400D+02  0.433501D+00
  0.464400D+01  0.347472D+00
  0.129300D+01  0.412620D-01
  0.511800D+00 -0.850799D-02
  0.178700D+00  0.238400D-02
   s    10 1.00
  0.114200D+05 -0.115000D-03
  0.171200D+04 -0.895000D-03
  0.389300D+03 -0.462400D-02
  0.110000D+03 -0.185280D-01
  0.355700D+02 -0.573390D-01
  0.125400D+02 -0.132076D+00
  0.464400D+01 -0.172510D+00
  0.129300D+01  0.151814D+00
  0.511800D+00  0.599944D+00
  0.178700D+00  0.387462D+00
   s     1 1.00
  0.129300D+01  0.100000D+01
   s     1 1.00
  0.178700D+00  0.100000D+01
   p     5 1.00
  0.266300D+02  0.146700D-01
  0.594800D+01  0.917640D-01
  0.174200D+01  0.298683D+00
  0.555000D+00  0.498487D+00
  0.172500D+00  0.337023D+00
   p     1 1.00
  0.174200D+01  0.100000D+01
   p     1 1.00
  0.555000D+00  0.100000D+01
   d     1 1.00
  0.165400D+01  0.100000D+01
   d     1 1.00
  0.469000D+00  0.100000D+01
   f     1 1.00
  0.109300D+01  0.100000D+01
  
  2  0
   s    10 1.00
  0.823600D+04  0.531000D-03
  0.123500D+04  0.410800D-02
  0.280800D+03  0.210870D-01
  0.792700D+02  0.818530D-01
  0.255900D+02  0.234817D+00
  0.899700D+01  0.434401D+00
  0.331900D+01  0.346129D+00
  0.905900D+00  0.393780D-01
  0.364300D+00 -0.898300D-02
  0.128500D+00  0.238500D-02
   s    10 1.00
  0.823600D+04 -0.113000D-03
  0.123500D+04 -0.878000D-03
  0.280800D+03 -0.454000D-02
  0.792700D+02 -0.181330D-01
  0.255900D+02 -0.557600D-01
  0.899700D+01 -0.126895D+00
  0.331900D+01 -0.170352D+00
  0.905900D+00  0.140382D+00
  0.364300D+00  0.598684D+00
  0.128500D+00  0.395389D+00
   s     1 1.00
  0.905900D+00  0.100000D+01
   s     1 1.00
  0.364300D+00  0.100000D+01
   p     5 1.00
  0.187100D+02  0.140310D-01
  0.413300D+01  0.868660D-01
  0.120000D+01  0.290216D+00
  0.382700D+00  0.501008D+00
  0.120900D+00  0.343406D+00
   p     1 1.00
  0.382700D+00  0.100000D+01
   p     1 1.00
  0.120900D+00  0.100000D+01
   d     1 1.00
  0.109700D+01  0.100000D+01
   d     1 1.00
  0.318000D+00  0.100000D+01
   f     1 1.00
  0.761000D+00  0.100000D+01
  
  3  0
   s    10 1.00
  0.823600D+04  0.531000D-03
  0.123500D+04  0.410800D-02
  0.280800D+03  0.210870D-01
  0.792700D+02  0.818530D-01
  0.255900D+02  0.234817D+00
  0.899700D+01  0.434401D+00
  0.331900D+01  0.346129D+00
  0.905900D+00  0.393780D-01
  0.364300D+00 -0.898300D-02
  0.128500D+00  0.238500D-02
   s    10 1.00
  0.823600D+04 -0.113000D-03
  0.123500D+04 -0.878000D-03
  0.280800D+03 -0.454000D-02
  0.792700D+02 -0.181330D-01
  0.255900D+02 -0.557600D-01
  0.899700D+01 -0.126895D+00
  0.331900D+01 -0.170352D+00
  0.905900D+00  0.140382D+00
  0.364300D+00  0.598684D+00
  0.128500D+00  0.395389D+00
   s     1 1.00
  0.905900D+00  0.100000D+01
   s     1 1.00
  0.364300D+00  0.100000D+01
   p     5 1.00
  0.187100D+02  0.140310D-01
  0.413300D+01  0.868660D-01
  0.120000D+01  0.290216D+00
  0.382700D+00  0.501008D+00
  0.120900D+00  0.343406D+00
   p     1 1.00
  0.382700D+00  0.100000D+01
   p     1 1.00
  0.120900D+00  0.100000D+01
   d     1 1.00
  0.109700D+01  0.100000D+01
   d     1 1.00
  0.318000D+00  0.100000D+01
   f     1 1.00
  0.761000D+00  0.100000D+01
  
  4  0
   s    10 1.00
  0.823600D+04  0.531000D-03
  0.123500D+04  0.410800D-02
  0.280800D+03  0.210870D-01
  0.792700D+02  0.818530D-01
  0.255900D+02  0.234817D+00
  0.899700D+01  0.434401D+00
  0.331900D+01  0.346129D+00
  0.905900D+00  0.393780D-01
  0.364300D+00 -0.898300D-02
  0.128500D+00  0.238500D-02
   s    10 1.00
  0.823600D+04 -0.113000D-03
  0.123500D+04 -0.878000D-03
  0.280800D+03 -0.454000D-02
  0.792700D+02 -0.181330D-01
  0.255900D+02 -0.557600D-01
  0.899700D+01 -0.126895D+00
  0.331900D+01 -0.170352D+00
  0.905900D+00  0.140382D+00
  0.364300D+00  0.598684D+00
  0.128500D+00  0.395389D+00
   s     1 1.00
  0.905900D+00  0.100000D+01
   s     1 1.00
  0.364300D+00  0.100000D+01
   p     5 1.00
  0.187100D+02  0.140310D-01
  0.413300D+01  0.868660D-01
  0.120000D+01  0.290216D+00
  0.382700D+00  0.501008D+00
  0.120900D+00  0.343406D+00
   p     1 1.00
  0.382700D+00  0.100000D+01
   p     1 1.00
  0.120900D+00  0.100000D+01
   d     1 1.00
  0.109700D+01  0.100000D+01
   d     1 1.00
  0.318000D+00  0.100000D+01
   f     1 1.00
  0.761000D+00  0.100000D+01
  
  5  0
   s    10 1.00
  0.823600D+04  0.531000D-03
  0.123500D+04  0.410800D-02
  0.280800D+03  0.210870D-01
  0.792700D+02  0.818530D-01
  0.255900D+02  0.234817D+00
  0.899700D+01  0.434401D+00
  0.331900D+01  0.346129D+00
  0.905900D+00  0.393780D-01
  0.364300D+00 -0.898300D-02
  0.128500D+00  0.238500D-02
   s    10 1.00
  0.823600D+04 -0.113000D-03
  0.123500D+04 -0.878000D-03
  0.280800D+03 -0.454000D-02
  0.792700D+02 -0.181330D-01
  0.255900D+02 -0.557600D-01
  0.899700D+01 -0.126895D+00
  0.331900D+01 -0.170352D+00
  0.905900D+00  0.140382D+00
  0.364300D+00  0.598684D+00
  0.128500D+00  0.395389D+00
   s     1 1.00
  0.905900D+00  0.100000D+01
   s     1 1.00
  0.364300D+00  0.100000D+01
   p     5 1.00
  0.187100D+02  0.140310D-01
  0.413300D+01  0.868660D-01
  0.120000D+01  0.290216D+00
  0.382700D+00  0.501008D+00
  0.120900D+00  0.343406D+00
   p     1 1.00
  0.382700D+00  0.100000D+01
   p     1 1.00
  0.120900D+00  0.100000D+01
   d     1 1.00
  0.109700D+01  0.100000D+01
   d     1 1.00
  0.318000D+00  0.100000D+01
   f     1 1.00
  0.761000D+00  0.100000D+01
  
  6  0
   s    10 1.00
  0.823600D+04  0.531000D-03
  0.123500D+04  0.410800D-02
  0.280800D+03  0.210870D-01
  0.792700D+02  0.818530D-01
  0.255900D+02  0.234817D+00
  0.899700D+01  0.434401D+00
  0.331900D+01  0.346129D+00
  0.905900D+00  0.393780D-01
  0.364300D+00 -0.898300D-02
  0.128500D+00  0.238500D-02
   s    10 1.00
  0.823600D+04 -0.113000D-03
  0.123500D+04 -0.878000D-03
  0.280800D+03 -0.454000D-02
  0.792700D+02 -0.181330D-01
  0.255900D+02 -0.557600D-01
  0.899700D+01 -0.126895D+00
  0.331900D+01 -0.170352D+00
  0.905900D+00  0.140382D+00
  0.364300D+00  0.598684D+00
  0.128500D+00  0.395389D+00
   s     1 1.00
  0.905900D+00  0.100000D+01
   s     1 1.00
  0.364300D+00  0.100000D+01
   p     5 1.00
  0.187100D+02  0.140310D-01
  0.413300D+01  0.868660D-01
  0.120000D+01  0.290216D+00
  0.382700D+00  0.501008D+00
  0.120900D+00  0.343406D+00
   p     1 1.00
  0.382700D+00  0.100000D+01
   p     1 1.00
  0.120900D+00  0.100000D+01
   d     1 1.00
  0.109700D+01  0.100000D+01
   d     1 1.00
  0.318000D+00  0.100000D+01
   f     1 1.00
  0.761000D+00  0.100000D+01
  
  7  0
   s    10 1.00
  0.823600D+04  0.531000D-03
  0.123500D+04  0.410800D-02
  0.280800D+03  0.210870D-01
  0.792700D+02  0.818530D-01
  0.255900D+02  0.234817D+00
  0.899700D+01  0.434401D+00
  0.331900D+01  0.346129D+00
  0.905900D+00  0.393780D-01
  0.364300D+00 -0.898300D-02
  0.128500D+00  0.238500D-02
   s    10 1.00
  0.823600D+04 -0.113000D-03
  0.123500D+04 -0.878000D-03
  0.280800D+03 -0.454000D-02
  0.792700D+02 -0.181330D-01
  0.255900D+02 -0.557600D-01
  0.899700D+01 -0.126895D+00
  0.331900D+01 -0.170352D+00
  0.905900D+00  0.140382D+00
  0.364300D+00  0.598684D+00
  0.128500D+00  0.395389D+00
   s     1 1.00
  0.905900D+00  0.100000D+01
   s     1 1.00
  0.364300D+00  0.100000D+01
   p     5 1.00
  0.187100D+02  0.140310D-01
  0.413300D+01  0.868660D-01
  0.120000D+01  0.290216D+00
  0.382700D+00  0.501008D+00
  0.120900D+00  0.343406D+00
   p     1 1.00
  0.382700D+00  0.100000D+01
   p     1 1.00
  0.120900D+00  0.100000D+01
   d     1 1.00
  0.109700D+01  0.100000D+01
   d     1 1.00
  0.318000D+00  0.100000D+01
   f     1 1.00
  0.761000D+00  0.100000D+01
  
  8  0
   s     4 1.00
  0.130100D+02  0.196850D-01
  0.196200D+01  0.137977D+00
  0.444600D+00  0.478148D+00
  0.122000D+00  0.501240D+00
   s     1 1.00
  0.122000D+00  0.100000D+01
   p     1 1.00
  0.727000D+00  0.100000D+01
  
  9  0
   s     4 1.00
  0.130100D+02  0.196850D-01
  0.196200D+01  0.137977D+00
  0.444600D+00  0.478148D+00
  0.122000D+00  0.501240D+00
   s     1 1.00
  0.122000D+00  0.100000D+01
   p     1 1.00
  0.727000D+00  0.100000D+01
  
 10  0
   s     4 1.00
  0.130100D+02  0.196850D-01
  0.196200D+01  0.137977D+00
  0.444600D+00  0.478148D+00
  0.122000D+00  0.501240D+00
   s     1 1.00
  0.122000D+00  0.100000D+01
   p     1 1.00
  0.727000D+00  0.100000D+01
  
 11  0
   s     4 1.00
  0.130100D+02  0.196850D-01
  0.196200D+01  0.137977D+00
  0.444600D+00  0.478148D+00
  0.122000D+00  0.501240D+00
   s     1 1.00
  0.122000D+00  0.100000D+01
   p     1 1.00
  0.727000D+00  0.100000D+01
  
 12  0
   s     4 1.00
  0.130100D+02  0.196850D-01
  0.196200D+01  0.137977D+00
  0.444600D+00  0.478148D+00
  0.122000D+00  0.501240D+00
   s     1 1.00
  0.122000D+00  0.100000D+01
   p     1 1.00
  0.727000D+00  0.100000D+01
  
 13  0
   s     4 1.00
  0.130100D+02  0.196850D-01
  0.196200D+01  0.137977D+00
  0.444600D+00  0.478148D+00
  0.122000D+00  0.501240D+00
   s     1 1.00
  0.122000D+00  0.100000D+01
   p     1 1.00
  0.727000D+00  0.100000D+01
  
 14  0
   s     4 1.00
  0.130100D+02  0.196850D-01
  0.196200D+01  0.137977D+00
  0.444600D+00  0.478148D+00
  0.122000D+00  0.501240D+00
   s     1 1.00
  0.122000D+00  0.100000D+01
   p     1 1.00
  0.727000D+00  0.100000D+01
  
[MO]
 Sym= __1_a__
 Ene=  0.000000000000000E+000
 Spin= Alpha
 Occup=    2.00000000000000     
                     1  1.267950756305120E-004
                     2  0.997335724106970     
                     3  1.782438464537590E-002
                     4  2.259732913053670E-003
                     5  9.152764806450869E-005
                     6  1.958924024704410E-009
                     7 -2.325702174400880E-008
                     8  3.173029720194380E-003
                     9 -2.782260480659050E-010
                    10  1.953744936079300E-008
                    11 -4.328007828475750E-004
                    12 -5.172685210505970E-009
                    13 -5.098913216798050E-008
                    14 -5.395871206971310E-004
                    15  1.625634584125935E-004
                    16  1.748612938798160E-010
                    17  1.078500968762540E-009
                    18  1.519004827086468E-004
                    19 -1.510866464776030E-012
                    20  1.775050048658993E-004
                    21  1.240144448626520E-009
                    22 -4.027116359232290E-008
                    23 -6.293822485845120E-004
                    24  1.539568134305640E-011
                    25 -2.416864986345777E-004
                    26 -1.012124831150671E-009
                    27 -1.062909916082564E-008
                    28 -9.492517870314060E-005
                    29  4.899899083218270E-012
                    30  2.793471093551718E-010
                    31 -4.269811887325182E-010
                    32 -2.761619538724080E-004
                    33  3.628118770069110E-003
                    34  1.804054717980430E-004
                    35 -7.790901249748010E-004
                    36 -4.160399288190000E-009
                    37  3.255310710717210E-008
                    38 -8.178162719793009E-003
                    39  4.648077451842470E-009
                    40 -1.196702309523830E-007
                    41  1.956161214936430E-004
                    42  6.228603110861430E-009
                    43 -7.741873322180690E-008
                    44  4.011785800710420E-003
                    45  4.213177075157875E-004
                    46 -2.056462430922680E-010
                    47  1.279133535037940E-008
                    48  1.010234040515228E-004
                    49  5.361788824581250E-012
                    50  7.323577656361740E-004
                    51  1.579526501414770E-009
                    52 -2.356557866571670E-007
                    53  1.200221515737752E-004
                    54 -1.154268304230290E-010
                    55 -7.018515948343363E-005
                    56  5.401776065104641E-010
                    57  5.138039828348204E-009
                    58  6.488040781612660E-006
                    59 -2.330265074921170E-011
                    60  5.207039487801980E-010
                    61  7.272283268522781E-010
                    62 -2.248810464855010E-004
                    63 -2.027550515158010E-003
                    64  2.146182568312480E-005
                    65  8.747069523328280E-004
                    66 -1.055919489802700E-009
                    67 -1.027893976796190E-003
                    68  1.461979697431290E-003
                    69  9.999134296918389E-010
                    70  7.073500150809850E-005
                    71  1.082738708251300E-004
                    72 -2.955220514857380E-009
                    73 -7.102747870267111E-004
                    74 -3.306421409429370E-004
                    75  1.067372061985544E-004
                    76 -7.930579875549119E-011
                    77 -8.014110677770800E-006
                    78  4.384963259145160E-005
                    79  2.495441142025990E-010
                    80  5.591428584337978E-005
                    81  1.320702329008710E-009
                    82 -1.360343880467560E-005
                    83  5.221691421839300E-005
                    84 -2.228588700830300E-009
                    85 -6.572894017432646E-005
                    86  2.289153378767902E-010
                    87  8.353578359466584E-006
                    88  1.737633619317278E-005
                    89  2.707440518625340E-010
                    90 -3.844279067059675E-010
                    91  3.449391472667461E-005
                    92 -2.248394665893030E-004
                    93 -2.027375945820630E-003
                    94  2.171107453402290E-005
                    95  8.738654759143090E-004
                    96 -1.069178530733320E-009
                    97  1.027938001761800E-003
                    98  1.462152766036310E-003
                    99  1.053631197132080E-009
                   100 -7.099566427607950E-005
                   101  1.072262739958250E-004
                   102 -2.903695691341460E-009
                   103  7.094209506751690E-004
                   104 -3.306466282690200E-004
                   105  1.066848528673432E-004
                   106 -7.379410606424019E-011
                   107  8.036146004345801E-006
                   108  4.385357022945460E-005
                   109 -2.255073918113770E-010
                   110  5.524345885295640E-005
                   111  1.227116376282940E-009
                   112  1.348276783543370E-005
                   113  5.206021805278060E-005
                   114  2.035934486817530E-009
                   115 -6.563251958434053E-005
                   116  2.256012098614412E-010
                   117 -8.371467831523123E-006
                   118  1.737540058710372E-005
                   119 -2.460888356843710E-010
                   120 -3.697018028116461E-010
                   121 -3.449313233138067E-005
                   122 -1.806075806606420E-004
                   123  2.449650253203240E-005
                   124  7.837420775395340E-005
                   125  3.115716532980310E-004
                   126 -1.309976823936420E-010
                   127  7.959821920078671E-005
                   128 -9.659271936892819E-004
                   129 -4.140506901522810E-010
                   130  4.646068548729380E-006
                   131  1.765330021620920E-004
                   132  1.186848600819020E-009
                   133  6.264315484004590E-005
                   134  5.932982166193910E-004
                   135  6.581067721067156E-006
                   136  2.261744027957450E-011
                   137  1.219839817562630E-005
                   138 -2.179832606472020E-007
                   139 -7.706732751228210E-011
                   140 -1.325561813853775E-004
                   141  7.111376172630510E-010
                   142  7.263675719802730E-005
                   143  2.966356816133840E-005
                   144  6.571249903288660E-010
                   145 -2.169561966408638E-005
                   146 -2.381699203311031E-010
                   147 -1.106337925717856E-005
                   148 -7.398802185127280E-006
                   149 -5.935554381697350E-011
                   150  6.249845065489277E-011
                   151 -2.991531247489196E-006
                   152 -1.812826607591860E-004
                   153  2.211045056273040E-005
                   154  7.774548142826510E-005
                   155  3.156403101190830E-004
                   156 -1.184008151496590E-010
                   157 -7.959361184990090E-005
                   158 -9.658369323954050E-004
                   159 -4.234180114743320E-010
                   160 -4.841767221461750E-006
                   161  1.757889296078050E-004
                   162  1.182186678328950E-009
                   163 -6.178388546456930E-005
                   164  5.932559762958760E-004
                   165  6.660808474942822E-006
                   166  2.358919757299860E-011
                   167 -1.219738002436470E-005
                   168 -2.783058765707360E-007
                   169  6.949959321907170E-011
                   170 -1.322604954092823E-004
                   171  6.566874243729380E-010
                   172 -7.286575407926380E-005
                   173  2.966700800551020E-005
                   174 -5.767146597492680E-010
                   175 -2.157138822276571E-005
                   176 -2.318872803694717E-010
                   177  1.109090413066711E-005
                   178 -7.457579847583480E-006
                   179  5.841427197552561E-011
                   180  5.634811557088603E-011
                   181  2.992844648275151E-006
                   182 -1.579077910885590E-004
                   183 -4.200782986833700E-004
                   184  2.102667801345540E-005
                   185  3.227866088548930E-004
                   186  2.673074903894350E-012
                   187  6.487739743597339E-008
                   188 -7.029075959294930E-005
                   189 -5.117236545410300E-010
                   190 -3.526666223444000E-007
                   191  2.962608769397250E-005
                   192 -9.638864511688130E-010
                   193  1.327202604335560E-007
                   194 -1.388442965918500E-004
                   195  1.947281751768210E-005
                   196  2.320051657650630E-011
                   197  2.369233844646560E-008
                   198  7.327865184051400E-006
                   199 -1.795291839321610E-012
                   200  2.823987233235745E-005
                   201  1.727393691168190E-010
                   202  1.712094558720190E-007
                   203 -6.091437477050560E-006
                   204  4.198933069442480E-011
                   205 -1.500201960650510E-005
                   206 -1.150518946030165E-011
                   207 -1.074600458962639E-008
                   208  5.882085314449040E-006
                   209 -6.970353910193780E-012
                   210 -6.936969400936630E-011
                   211  2.459466539563417E-008
                   212  8.429662941522680E-003
                   213 -4.386068452688370E-003
                   214  8.083291625283300E-004
                   215 -2.669931371739000E-009
                   216  5.303632731901980E-004
                   217  8.429669079260691E-003
                   218 -4.386074937834150E-003
                   219 -8.083327034946380E-004
                   220 -2.678600541191730E-009
                   221  5.303640333100860E-004
                   222 -7.660047968550190E-004
                   223 -2.023027260024920E-004
                   224 -2.106961121972810E-010
                   225 -4.340434034926350E-005
                   226 -5.391278165230560E-005
                   227 -7.661061879555390E-004
                   228 -2.018268964349170E-004
                   229 -1.858020761515490E-010
                   230  4.337254279260850E-005
                   231 -5.395778532631400E-005
                   232 -3.374294705675270E-004
                   233 -1.876803836243000E-004
                   234  2.488517951286180E-011
                   235 -2.014803164006980E-005
                   236 -2.663706708018230E-006
                   237 -3.375594539607810E-004
                   238 -1.878340803310870E-004
                   239  1.794542001345630E-011
                   240  2.023296295611880E-005
                   241 -2.605234417994380E-006
                   242  9.723060677208059E-005
                   243  3.613940182240960E-005
                   244  4.136747699608270E-011
                   245 -1.803771212964850E-008
                   246  2.239643379426180E-005
 Sym= __2_a__
 Ene=  0.000000000000000E+000
 Spin= Alpha
 Occup=    2.00000000000000     
                     1  2.257429387736040E-006
                     2 -7.455691672725320E-005
                     3  1.605176315662130E-003
                     4  5.720188631077790E-005
                     5  1.120924809438060E-003
                     6  1.573339248785860E-010
                     7  8.986962296130361E-009
                     8  1.549674864620620E-003
                     9  1.099747693459790E-010
                    10 -4.968282439265380E-009
                    11 -9.273082706425850E-005
                    12 -2.344793996611380E-010
                    13  4.073004378122490E-009
                    14 -7.993630103658580E-006
                    15  4.089923193140532E-005
                    16 -2.236679595123320E-011
                    17  4.589214715244330E-010
                    18  5.525217834128100E-007
                    19  7.580392526456330E-013
                    20 -1.236159376201593E-004
                    21  4.187023213912450E-010
                    22  2.522683126525670E-009
                    23  3.100809644067640E-005
                    24 -7.136273436271430E-013
                    25  1.919770761986108E-004
                    26  2.949474284705192E-010
                    27 -9.950524660856420E-010
                    28 -5.655291030842680E-005
                    29 -5.721642303172840E-013
                    30  6.942951656062381E-011
                    31  4.608308645475948E-010
                    32   1.00110868686725     
                    33  8.562374219379500E-003
                    34  2.444490508858690E-003
                    35 -7.774609009057070E-003
                    36 -6.575066161449850E-010
                    37 -5.848782974203450E-009
                    38 -2.346904402452870E-003
                    39  3.423836310241740E-010
                    40  9.267998066578189E-009
                    41  8.493684088950270E-004
                    42  9.188734567620930E-011
                    43 -6.496025879140670E-008
                    44  3.213455527251880E-003
                    45  2.964519413574099E-004
                    46 -1.793466205069950E-011
                    47 -3.382315407552320E-009
                    48 -3.327147859678180E-004
                    49 -3.662054222168720E-013
                    50  1.661693519296446E-004
                    51  2.000357209546130E-010
                    52  2.309330892076160E-008
                    53  6.279594183276960E-004
                    54  3.639937184411140E-012
                    55  2.877739988971775E-004
                    56 -1.640016682804316E-010
                    57  1.085871862003231E-010
                    58 -1.393035742083150E-004
                    59  3.370674877666420E-012
                    60 -1.421617910492472E-011
                    61  1.490834785338757E-009
                    62  1.070141259550020E-002
                    63 -1.641720505716550E-003
                    64 -2.808664119811990E-004
                    65  2.749638348309940E-003
                    66 -4.118362548570330E-011
                    67  2.727045398488520E-004
                    68 -2.157646086809610E-004
                    69 -7.481346484646900E-011
                    70  5.534673014579360E-004
                    71  1.832329529359170E-004
                    72 -5.806578798238960E-012
                    73 -1.650469465355260E-003
                    74  2.276826627388760E-004
                    75 -2.856425006809605E-005
                    76  3.864405834711200E-012
                    77  2.074916129777920E-006
                    78  1.359488344323232E-005
                    79 -1.402874316008580E-012
                    80  6.620218916832262E-004
                    81 -4.803765209674550E-011
                    82 -3.024741489753890E-004
                    83 -9.277587274046260E-005
                    84 -3.330177014222280E-011
                    85  5.080123740907663E-005
                    86 -5.001205120310505E-012
                    87  7.062608179389030E-006
                    88 -1.146764381195406E-004
                    89  8.608341756910120E-013
                    90  7.992620349790205E-012
                    91  3.784337725519280E-005
                    92  1.070138728356660E-002
                    93 -1.641800826792350E-003
                    94 -2.809204336848850E-004
                    95  2.749864603259310E-003
                    96 -4.571836047802930E-011
                    97 -2.727081090922890E-004
                    98 -2.157958354354990E-004
                    99 -6.044744055528420E-011
                   100 -5.534475500499990E-004
                   101  1.834179730624110E-004
                   102 -1.515783077906140E-011
                   103  1.650627730741910E-003
                   104  2.275294913414220E-004
                   105 -2.854828070047111E-005
                   106  3.957119664866050E-012
                   107 -2.081114167821900E-006
                   108  1.359364720901722E-005
                   109  1.758571538146850E-012
                   110  6.621221334739735E-004
                   111 -4.540485384590190E-011
                   112  3.025230312057430E-004
                   113 -9.275033538200319E-005
                   114  3.997232871181630E-011
                   115  5.078303681253752E-005
                   116 -5.442936348986187E-012
                   117 -7.059772028965376E-006
                   118 -1.146744424604584E-004
                   119 -2.229242199393300E-012
                   120  5.167749006880541E-012
                   121 -3.784267953114679E-005
                   122 -1.635693778430370E-004
                   123 -7.653458597146230E-004
                   124  2.234381324521110E-004
                   125 -1.461763087509290E-004
                   126 -1.058859732538470E-010
                   127 -1.420791111128950E-005
                   128 -1.601953502376530E-004
                   129  3.221060830045050E-011
                   130 -3.837901854130460E-005
                   131  6.001281605766360E-004
                   132  9.620695900085810E-011
                   133  2.306367154668420E-004
                   134  6.496170166043080E-004
                   135 -2.537738495333756E-005
                   136  2.717287027748920E-012
                   137  3.602712539314700E-005
                   138  1.340584687021716E-005
                   139 -7.109355335465020E-012
                   140 -2.683364429419141E-004
                   141 -2.792835906463560E-011
                   142 -1.421021934812410E-004
                   143 -9.239319568788780E-006
                   144  3.877524043916020E-011
                   145 -5.151672026270199E-006
                   146  7.986485060325930E-012
                   147 -2.779695789608043E-005
                   148 -4.363938173430860E-005
                   149  5.276294047149210E-012
                   150  1.890768334413328E-012
                   151 -3.153598123226771E-006
                   152 -1.632880996754670E-004
                   153 -7.644121603465520E-004
                   154  2.235462531376460E-004
                   155 -1.473120026607390E-004
                   156 -8.405894662368420E-011
                   157  1.419458877118940E-005
                   158 -1.602036756119650E-004
                   159  2.601734376220460E-011
                   160  3.845023963879500E-005