[Molden Format]
[Atoms] AU
  N     1    7    -4.4601327200    0.1486572200   -0.1184978700        
  C     2    6    -1.7697692600   -0.0178246200   -0.0513527000        
  C     3    6    -0.4049632100    0.0537693500   -2.3080742100        
  C     4    6    -0.4516315300   -0.0680771300    2.2265614800        
  C     5    6     2.2064366400    0.0402910900   -2.2706693700        
  C     6    6     2.1684365600   -0.0456213700    2.2424499400        
  C     7    6     3.5116798600   -0.0004931400    0.0015521300        
  H     8    1    -5.1891228800   -1.2018107800   -1.2958080300        
  H     9    1    -5.1742367900   -0.1986951300    1.6459381300        
  H    10    1    -1.3974308700    0.1305530700   -4.0744845300        
  H    11    1    -1.4698955800   -0.1310894600    3.9798662700        
  H    12    1     3.2283621900    0.0819243000   -4.0232026000        
  H    13    1     3.1531626900   -0.0822027400    4.0163560600        
  H    14    1     5.5396175700    0.0036655700    0.0192965900        
[5D]
[7F]
[GTO]
  1  0
   s    12 1.00
  0.114200D+05  0.172695D-04
  0.171200D+04  0.134411D-03
  0.389300D+03  0.694561D-03
  0.110000D+03  0.278531D-02
  0.355700D+02  0.863457D-02
  0.125400D+02  0.199805D-01
  0.464400D+01  0.262908D-01
  0.129300D+01 -0.243845D-01
  0.511800D+00 -0.924934D-01
  0.178700D+00 -0.339683D+00
  0.246240D-01  0.345111D+00
  0.112530D-01  0.752750D+00
   s    10 1.00
  0.114200D+05  0.523000D-03
  0.171200D+04  0.404500D-02
  0.389300D+03  0.207750D-01
  0.110000D+03  0.807269D-01
  0.355700D+02  0.233074D+00
  0.125400D+02  0.433501D+00
  0.464400D+01  0.347472D+00
  0.129300D+01  0.412620D-01
  0.511800D+00 -0.850799D-02
  0.178700D+00  0.238400D-02
   s    10 1.00
  0.114200D+05 -0.115000D-03
  0.171200D+04 -0.895000D-03
  0.389300D+03 -0.462400D-02
  0.110000D+03 -0.185280D-01
  0.355700D+02 -0.573390D-01
  0.125400D+02 -0.132076D+00
  0.464400D+01 -0.172510D+00
  0.129300D+01  0.151814D+00
  0.511800D+00  0.599944D+00
  0.178700D+00  0.387462D+00
   s     1 1.00
  0.129300D+01  0.100000D+01
   s     1 1.00
  0.178700D+00  0.100000D+01
   p     5 1.00
  0.266300D+02  0.146700D-01
  0.594800D+01  0.917640D-01
  0.174200D+01  0.298683D+00
  0.555000D+00  0.498487D+00
  0.172500D+00  0.337023D+00
   p     1 1.00
  0.174200D+01  0.100000D+01
   p     1 1.00
  0.555000D+00  0.100000D+01
   d     1 1.00
  0.165400D+01  0.100000D+01
   d     1 1.00
  0.469000D+00  0.100000D+01
   f     1 1.00
  0.109300D+01  0.100000D+01
  
  2  0
   s    10 1.00
  0.823600D+04  0.531000D-03
  0.123500D+04  0.410800D-02
  0.280800D+03  0.210870D-01
  0.792700D+02  0.818530D-01
  0.255900D+02  0.234817D+00
  0.899700D+01  0.434401D+00
  0.331900D+01  0.346129D+00
  0.905900D+00  0.393780D-01
  0.364300D+00 -0.898300D-02
  0.128500D+00  0.238500D-02
   s    10 1.00
  0.823600D+04 -0.113000D-03
  0.123500D+04 -0.878000D-03
  0.280800D+03 -0.454000D-02
  0.792700D+02 -0.181330D-01
  0.255900D+02 -0.557600D-01
  0.899700D+01 -0.126895D+00
  0.331900D+01 -0.170352D+00
  0.905900D+00  0.140382D+00
  0.364300D+00  0.598684D+00
  0.128500D+00  0.395389D+00
   s     1 1.00
  0.905900D+00  0.100000D+01
   s     1 1.00
  0.364300D+00  0.100000D+01
   p     5 1.00
  0.187100D+02  0.140310D-01
  0.413300D+01  0.868660D-01
  0.120000D+01  0.290216D+00
  0.382700D+00  0.501008D+00
  0.120900D+00  0.343406D+00
   p     1 1.00
  0.382700D+00  0.100000D+01
   p     1 1.00
  0.120900D+00  0.100000D+01
   d     1 1.00
  0.109700D+01  0.100000D+01
   d     1 1.00
  0.318000D+00  0.100000D+01
   f     1 1.00
  0.761000D+00  0.100000D+01
  
  3  0
   s    10 1.00
  0.823600D+04  0.531000D-03
  0.123500D+04  0.410800D-02
  0.280800D+03  0.210870D-01
  0.792700D+02  0.818530D-01
  0.255900D+02  0.234817D+00
  0.899700D+01  0.434401D+00
  0.331900D+01  0.346129D+00
  0.905900D+00  0.393780D-01
  0.364300D+00 -0.898300D-02
  0.128500D+00  0.238500D-02
   s    10 1.00
  0.823600D+04 -0.113000D-03
  0.123500D+04 -0.878000D-03
  0.280800D+03 -0.454000D-02
  0.792700D+02 -0.181330D-01
  0.255900D+02 -0.557600D-01
  0.899700D+01 -0.126895D+00
  0.331900D+01 -0.170352D+00
  0.905900D+00  0.140382D+00
  0.364300D+00  0.598684D+00
  0.128500D+00  0.395389D+00
   s     1 1.00
  0.905900D+00  0.100000D+01
   s     1 1.00
  0.364300D+00  0.100000D+01
   p     5 1.00
  0.187100D+02  0.140310D-01
  0.413300D+01  0.868660D-01
  0.120000D+01  0.290216D+00
  0.382700D+00  0.501008D+00
  0.120900D+00  0.343406D+00
   p     1 1.00
  0.382700D+00  0.100000D+01
   p     1 1.00
  0.120900D+00  0.100000D+01
   d     1 1.00
  0.109700D+01  0.100000D+01
   d     1 1.00
  0.318000D+00  0.100000D+01
   f     1 1.00
  0.761000D+00  0.100000D+01
  
  4  0
   s    10 1.00
  0.823600D+04  0.531000D-03
  0.123500D+04  0.410800D-02
  0.280800D+03  0.210870D-01
  0.792700D+02  0.818530D-01
  0.255900D+02  0.234817D+00
  0.899700D+01  0.434401D+00
  0.331900D+01  0.346129D+00
  0.905900D+00  0.393780D-01
  0.364300D+00 -0.898300D-02
  0.128500D+00  0.238500D-02
   s    10 1.00
  0.823600D+04 -0.113000D-03
  0.123500D+04 -0.878000D-03
  0.280800D+03 -0.454000D-02
  0.792700D+02 -0.181330D-01
  0.255900D+02 -0.557600D-01
  0.899700D+01 -0.126895D+00
  0.331900D+01 -0.170352D+00
  0.905900D+00  0.140382D+00
  0.364300D+00  0.598684D+00
  0.128500D+00  0.395389D+00
   s     1 1.00
  0.905900D+00  0.100000D+01
   s     1 1.00
  0.364300D+00  0.100000D+01
   p     5 1.00
  0.187100D+02  0.140310D-01
  0.413300D+01  0.868660D-01
  0.120000D+01  0.290216D+00
  0.382700D+00  0.501008D+00
  0.120900D+00  0.343406D+00
   p     1 1.00
  0.382700D+00  0.100000D+01
   p     1 1.00
  0.120900D+00  0.100000D+01
   d     1 1.00
  0.109700D+01  0.100000D+01
   d     1 1.00
  0.318000D+00  0.100000D+01
   f     1 1.00
  0.761000D+00  0.100000D+01
  
  5  0
   s    10 1.00
  0.823600D+04  0.531000D-03
  0.123500D+04  0.410800D-02
  0.280800D+03  0.210870D-01
  0.792700D+02  0.818530D-01
  0.255900D+02  0.234817D+00
  0.899700D+01  0.434401D+00
  0.331900D+01  0.346129D+00
  0.905900D+00  0.393780D-01
  0.364300D+00 -0.898300D-02
  0.128500D+00  0.238500D-02
   s    10 1.00
  0.823600D+04 -0.113000D-03
  0.123500D+04 -0.878000D-03
  0.280800D+03 -0.454000D-02
  0.792700D+02 -0.181330D-01
  0.255900D+02 -0.557600D-01
  0.899700D+01 -0.126895D+00
  0.331900D+01 -0.170352D+00
  0.905900D+00  0.140382D+00
  0.364300D+00  0.598684D+00
  0.128500D+00  0.395389D+00
   s     1 1.00
  0.905900D+00  0.100000D+01
   s     1 1.00
  0.364300D+00  0.100000D+01
   p     5 1.00
  0.187100D+02  0.140310D-01
  0.413300D+01  0.868660D-01
  0.120000D+01  0.290216D+00
  0.382700D+00  0.501008D+00
  0.120900D+00  0.343406D+00
   p     1 1.00
  0.382700D+00  0.100000D+01
   p     1 1.00
  0.120900D+00  0.100000D+01
   d     1 1.00
  0.109700D+01  0.100000D+01
   d     1 1.00
  0.318000D+00  0.100000D+01
   f     1 1.00
  0.761000D+00  0.100000D+01
  
  6  0
   s    10 1.00
  0.823600D+04  0.531000D-03
  0.123500D+04  0.410800D-02
  0.280800D+03  0.210870D-01
  0.792700D+02  0.818530D-01
  0.255900D+02  0.234817D+00
  0.899700D+01  0.434401D+00
  0.331900D+01  0.346129D+00
  0.905900D+00  0.393780D-01
  0.364300D+00 -0.898300D-02
  0.128500D+00  0.238500D-02
   s    10 1.00
  0.823600D+04 -0.113000D-03
  0.123500D+04 -0.878000D-03
  0.280800D+03 -0.454000D-02
  0.792700D+02 -0.181330D-01
  0.255900D+02 -0.557600D-01
  0.899700D+01 -0.126895D+00
  0.331900D+01 -0.170352D+00
  0.905900D+00  0.140382D+00
  0.364300D+00  0.598684D+00
  0.128500D+00  0.395389D+00
   s     1 1.00
  0.905900D+00  0.100000D+01
   s     1 1.00
  0.364300D+00  0.100000D+01
   p     5 1.00
  0.187100D+02  0.140310D-01
  0.413300D+01  0.868660D-01
  0.120000D+01  0.290216D+00
  0.382700D+00  0.501008D+00
  0.120900D+00  0.343406D+00
   p     1 1.00
  0.382700D+00  0.100000D+01
   p     1 1.00
  0.120900D+00  0.100000D+01
   d     1 1.00
  0.109700D+01  0.100000D+01
   d     1 1.00
  0.318000D+00  0.100000D+01
   f     1 1.00
  0.761000D+00  0.100000D+01
  
  7  0
   s    10 1.00
  0.823600D+04  0.531000D-03
  0.123500D+04  0.410800D-02
  0.280800D+03  0.210870D-01
  0.792700D+02  0.818530D-01
  0.255900D+02  0.234817D+00
  0.899700D+01  0.434401D+00
  0.331900D+01  0.346129D+00
  0.905900D+00  0.393780D-01
  0.364300D+00 -0.898300D-02
  0.128500D+00  0.238500D-02
   s    10 1.00
  0.823600D+04 -0.113000D-03
  0.123500D+04 -0.878000D-03
  0.280800D+03 -0.454000D-02
  0.792700D+02 -0.181330D-01
  0.255900D+02 -0.557600D-01
  0.899700D+01 -0.126895D+00
  0.331900D+01 -0.170352D+00
  0.905900D+00  0.140382D+00
  0.364300D+00  0.598684D+00
  0.128500D+00  0.395389D+00
   s     1 1.00
  0.905900D+00  0.100000D+01
   s     1 1.00
  0.364300D+00  0.100000D+01
   p     5 1.00
  0.187100D+02  0.140310D-01
  0.413300D+01  0.868660D-01
  0.120000D+01  0.290216D+00
  0.382700D+00  0.501008D+00
  0.120900D+00  0.343406D+00
   p     1 1.00
  0.382700D+00  0.100000D+01
   p     1 1.00
  0.120900D+00  0.100000D+01
   d     1 1.00
  0.109700D+01  0.100000D+01
   d     1 1.00
  0.318000D+00  0.100000D+01
   f     1 1.00
  0.761000D+00  0.100000D+01
  
  8  0
   s     4 1.00
  0.130100D+02  0.196850D-01
  0.196200D+01  0.137977D+00
  0.444600D+00  0.478148D+00
  0.122000D+00  0.501240D+00
   s     1 1.00
  0.122000D+00  0.100000D+01
   p     1 1.00
  0.727000D+00  0.100000D+01
  
  9  0
   s     4 1.00
  0.130100D+02  0.196850D-01
  0.196200D+01  0.137977D+00
  0.444600D+00  0.478148D+00
  0.122000D+00  0.501240D+00
   s     1 1.00
  0.122000D+00  0.100000D+01
   p     1 1.00
  0.727000D+00  0.100000D+01
  
 10  0
   s     4 1.00
  0.130100D+02  0.196850D-01
  0.196200D+01  0.137977D+00
  0.444600D+00  0.478148D+00
  0.122000D+00  0.501240D+00
   s     1 1.00
  0.122000D+00  0.100000D+01
   p     1 1.00
  0.727000D+00  0.100000D+01
  
 11  0
   s     4 1.00
  0.130100D+02  0.196850D-01
  0.196200D+01  0.137977D+00
  0.444600D+00  0.478148D+00
  0.122000D+00  0.501240D+00
   s     1 1.00
  0.122000D+00  0.100000D+01
   p     1 1.00
  0.727000D+00  0.100000D+01
  
 12  0
   s     4 1.00
  0.130100D+02  0.196850D-01
  0.196200D+01  0.137977D+00
  0.444600D+00  0.478148D+00
  0.122000D+00  0.501240D+00
   s     1 1.00
  0.122000D+00  0.100000D+01
   p     1 1.00
  0.727000D+00  0.100000D+01
  
 13  0
   s     4 1.00
  0.130100D+02  0.196850D-01
  0.196200D+01  0.137977D+00
  0.444600D+00  0.478148D+00
  0.122000D+00  0.501240D+00
   s     1 1.00
  0.122000D+00  0.100000D+01
   p     1 1.00
  0.727000D+00  0.100000D+01
  
 14  0
   s     4 1.00
  0.130100D+02  0.196850D-01
  0.196200D+01  0.137977D+00
  0.444600D+00  0.478148D+00
  0.122000D+00  0.501240D+00
   s     1 1.00
  0.122000D+00  0.100000D+01
   p     1 1.00
  0.727000D+00  0.100000D+01
  
[MO]
 Sym= __1_A__
 Ene=  0.000000000000000E+000
 Spin= Alpha
 Occup=    2.00000000000000     
                     1  2.271080783849129E-004
                     2  0.998072021028843     
                     3  3.452239094303457E-003
                     4  1.924677908667384E-003
                     5  5.670671094669606E-003
                     6  5.543524560005314E-003
                     7 -4.603659263731937E-003
                     8  2.088443510455046E-003
                     9 -7.844184727394673E-004
                    10  2.588635258724705E-004
                    11 -2.382149481611333E-004
                    12 -1.434130002842316E-003
                    13  3.006337097128223E-003
                    14 -1.259290892379957E-003
                    15 -7.484046908750225E-006
                    16 -3.354837939086928E-005
                    17 -1.346702565533507E-006
                    18  6.927897445274421E-005
                    19  5.962068365804174E-005
                    20 -3.453712057029500E-004
                    21  2.446664978052307E-004
                    22 -1.216603003896565E-004
                    23  6.907271116823553E-005
                    24 -4.569766391456775E-004
                    25 -4.774684441809023E-005
                    26 -1.342474282886474E-004
                    27 -3.427321036345023E-005
                    28  5.412145138431316E-005
                    29 -2.005802124915853E-005
                    30 -1.031641014800065E-004
                    31 -4.436374962154883E-005
                    32 -3.789236499219220E-004
                    33  8.942742065727717E-004
                    34  2.436190286282520E-004
                    35 -1.013160826538305E-004
                    36 -4.266292032219094E-003
                    37 -3.449182180950567E-005
                    38 -1.237605235041324E-004
                    39  2.085460022191306E-004
                    40 -2.497493360156974E-005
                    41  3.710598665656767E-004
                    42  4.838006293457524E-003
                    43  7.782295610605678E-004
                    44 -1.756601008677825E-003
                    45 -2.182012843453806E-004
                    46  1.875091456195463E-005
                    47  5.912517091124320E-006
                    48  2.038460520818404E-004
                    49  4.669194083488612E-005
                    50  4.779604131610014E-004
                    51  2.836142581884810E-004
                    52 -4.095539241511550E-005
                    53 -6.437510502361600E-005
                    54 -3.490197400245465E-004
                    55  1.970838133594294E-005
                    56 -5.832716603256062E-005
                    57  7.438063920653730E-006
                    58  1.504973650580589E-005
                    59  1.624996122634216E-006
                    60 -3.477231128842384E-005
                    61  3.309916510158434E-005
                    62 -5.202123703761324E-004
                    63 -2.298091026151425E-003
                    64  2.742593488475180E-005
                    65  1.611446816408031E-003
                    66  4.942575512229272E-004
                    67 -9.394597085407856E-005
                    68 -6.234969481285533E-004
                    69  7.706991301181849E-004
                    70  6.702017731045750E-005
                    71  3.255025160900056E-004
                    72  6.097284659250511E-004
                    73 -2.986123828160463E-004
                    74 -1.220446716716825E-003
                    75 -7.384328361827000E-005
                    76 -2.009951744833675E-005
                    77  1.923884694144262E-005
                    78  7.190901063934815E-005
                    79 -7.646089667905463E-006
                    80  2.768442717565503E-004
                    81  1.895796281484263E-004
                    82 -4.177835946035974E-005
                    83 -6.544449838793715E-005
                    84  3.633281086882317E-005
                    85 -1.596267533655856E-005
                    86 -9.650407480705382E-005
                    87  2.036815739818629E-005
                    88 -4.323846461116222E-006
                    89  1.318451243003502E-005
                    90 -6.129572167215682E-005
                    91 -1.191571480325761E-005
                    92 -1.950748233552290E-004
                    93 -1.232342489695899E-003
                    94  1.729970800583605E-004
                    95  4.061091594224664E-005
                    96  6.074757238649139E-004
                    97 -9.759226619353901E-005
                    98  5.169758790284888E-004
                    99  4.112253544354386E-004
                   100  8.448112381412127E-005
                   101  1.121630148103102E-004
                   102 -1.511600609700986E-003
                   103 -3.303768530622009E-004
                   104  3.789608445454053E-004
                   105 -7.174000439306579E-005
                   106  6.544646250434053E-006
                   107 -1.432191351194528E-005
                   108  5.160167392177328E-005
                   109 -9.948752584853481E-006
                   110  7.977419304435233E-005
                   111 -1.926598908739167E-004
                   112  1.396848019083597E-005
                   113 -1.824894014564835E-004
                   114  5.952928556473850E-005
                   115 -3.770856176797720E-006
                   116 -1.275436297927740E-005
                   117  1.970525834501575E-005
                   118  1.624645135937376E-005
                   119 -1.153995087974766E-005
                   120 -2.981167468189714E-005
                   121 -8.332261814318207E-006
                   122 -2.422217688968892E-004
                   123 -4.939201099055529E-004
                   124  8.786899942554083E-005
                   125  6.669662521004040E-004
                   126 -5.488128825919549E-004
                   127 -3.995739941272351E-005
                   128 -1.746216312547229E-006
                   129  4.269748659339824E-004
                   130 -2.260820059595322E-005
                   131  1.477832849232022E-004
                   132  1.895511339814299E-003
                   133  1.434195573184479E-004
                   134  1.590395018545074E-004
                   135  1.698364679304605E-005
                   136  1.863792174599937E-006
                   137 -4.257123931179326E-006
                   138 -8.864429619629640E-006
                   139  9.554293138475532E-006
                   140  1.744658032568759E-004
                   141  2.783342096981293E-004
                   142  9.466776948098930E-006
                   143 -2.898381811794204E-004
                   144 -2.259245057019270E-005
                   145 -2.364108116397018E-005
                   146 -1.867981337249817E-005
                   147  1.161212182316808E-006
                   148 -8.362230607853462E-006
                   149 -2.934779462814700E-006
                   150 -6.413431888246230E-005
                   151 -1.100953242301994E-006
                   152 -1.500806140392472E-004
                   153 -1.949506314498111E-004
                   154  1.391207414305290E-005
                   155  4.811308777826277E-004
                   156 -4.974660359073171E-004
                   157 -3.481579211543196E-005
                   158 -4.835459222276655E-005
                   159  5.273820340203504E-006
                   160 -3.057209562690940E-005
                   161  1.300261438646518E-004
                   162 -2.094790695081281E-004
                   163  1.118199145123446E-004
                   164  6.768683410531285E-004
                   165 -7.818492973882295E-006
                   166  3.936191951722758E-006
                   167  3.278013480953103E-006
                   168  9.061265125156025E-006
                   169  7.408755868939245E-006
                   170 -2.039918846784088E-005
                   171 -1.080475788551410E-004
                   172 -2.006751931253610E-006
                   173 -7.140989913071946E-005
                   174 -2.326312529112019E-006
                   175 -9.909557267440791E-007
                   176 -1.068046409436548E-005
                   177  2.710199350142904E-006
                   178 -2.181255108858546E-007
                   179  7.067056440774086E-007
                   180 -2.393293758635033E-005
                   181 -3.133909931505541E-006
                   182 -1.321282412675735E-004
                   183 -4.088993734062094E-004
                   184  2.934504987743489E-005
                   185  1.637176866361920E-004
                   186 -1.725576241364084E-005
                   187 -4.093438077244734E-005
                   188 -4.935151431072352E-005
                   189  9.221284323622645E-005
                   190  1.588933867589702E-005
                   191  2.127785986277534E-004
                   192 -3.782447943994649E-004
                   193 -1.161215720496652E-004
                   194  1.157778608632502E-003
                   195 -9.634804651026315E-006
                   196  1.838041939454514E-006
                   197 -2.406344066539922E-008
                   198  3.733995152201656E-006
                   199 -1.766293750016035E-006
                   200 -1.180735775440152E-004
                   201 -1.752808563219410E-004
                   202  2.945583600062994E-006
                   203  6.487806124642546E-005
                   204  1.780071687712715E-005
                   205  2.033849842897785E-006
                   206  1.255125873574064E-006
                   207  2.409756659264326E-006
                   208  1.387912686332312E-005
                   209 -6.859567089006926E-007
                   210 -5.374285483983495E-006
                   211 -2.606059503854955E-006
                   212  2.440883735675818E-003
                   213 -2.032347929585327E-003
                   214  1.591241467889997E-004
                   215  3.809808718105225E-004
                   216  2.263450947726795E-004
                   217  2.780590623766300E-003
                   218 -2.200257143048463E-003
                   219  1.913299753252459E-004
                   220  1.655173869074746E-004
                   221 -4.625565457695917E-004
                   222 -5.171853071659334E-004
                   223 -2.734447362535853E-004
                   224 -7.502320528744338E-005
                   225  8.379827163667178E-006
                   226  3.474538763623270E-005
                   227 -4.419039650366066E-004
                   228 -3.649011218577565E-004
                   229 -4.756651944068729E-005
                   230  1.295004362313186E-005
                   231 -4.285386138432198E-005
                   232 -8.142284856713746E-005
                   233 -5.717210140158121E-004
                   234  9.890722743438769E-007
                   235 -1.085316394403702E-006
                   236 -4.153571800236918E-006
                   237 -1.357440313370515E-004
                   238 -3.687083556241004E-004
                   239  1.117134264798652E-005
                   240 -2.563726143312013E-006
                   241  1.510869260442593E-005
                   242  1.250041922943489E-005
                   243  1.160314153801370E-004
                   244  2.985411951675267E-005
                   245  1.750191223460970E-006
                   246  1.307946891549039E-006
 Sym= __2_A__
 Ene=  0.000000000000000E+000
 Spin= Alpha
 Occup=    2.00000000000000     
                     1 -1.659691955104750E-005
                     2 -8.402528238808143E-005
                     3  1.914675930516203E-003
                     4 -1.470901425082790E-005
                     5  1.233006504563143E-003
                     6  1.878539470842791E-003
                     7  2.332960580183662E-004
                     8 -1.570450012838668E-004
                     9 -1.510225715111970E-004
                    10  9.933329837571928E-005
                    11 -1.694088381653548E-005
                    12  6.618629665408334E-005
                    13  7.387029117012899E-005
                    14  5.302373449245667E-005
                    15 -6.993696015250116E-005
                    16  9.169948762803757E-006
                    17 -6.920264827831575E-006
                    18  4.144106769197396E-005
                    19 -2.351277278394823E-006
                    20  1.709495111166941E-004
                    21 -5.234700736775246E-005
                    22  2.312552716385416E-005
                    23  1.049142890687153E-004
                    24 -4.891825359480783E-005
                    25 -4.599757170937159E-005
                    26  1.365533607297057E-004
                    27 -3.873051813607076E-005
                    28 -9.011892985788900E-007
                    29  6.231276333997891E-007
                    30  1.284217712959824E-004
                    31  3.598314582879400E-005
                    32   1.00095781501990     
                    33  8.768733573548735E-003
                    34  2.794406079964100E-003
                    35 -8.252196995745729E-003
                    36 -2.517765751218800E-003
                    37  6.499368102372960E-004
                    38  1.069747883201053E-005
                    39  1.096580623277015E-003
                    40 -2.171686326933140E-004
                    41 -7.207324368377307E-005
                    42  3.367988849054024E-003
                    43 -1.216253708354936E-004
                    44 -1.478675701179223E-004
                    45  2.981515332381792E-004
                    46  1.537498090839669E-005
                    47 -1.293579916985784E-005
                    48  4.086815034841540E-004
                    49 -2.021739249112245E-005
                    50 -1.034992705150685E-003
                    51 -1.093311358004279E-004
                    52  5.565986754920373E-005
                    53 -1.215623201618531E-004
                    54  2.715277333560331E-005
                    55 -7.216176238192097E-006
                    56  3.064209016444131E-004
                    57 -8.951519809743666E-006
                    58 -1.085426178753198E-005
                    59 -3.452521900083657E-006
                    60  7.998623105175606E-005
                    61  1.696487317647962E-005
                    62  1.255490968770422E-002
                    63 -1.865319752650548E-003
                    64 -2.948872567492539E-004
                    65  3.051365892882351E-003
                    66 -1.433733924571714E-004
                    67  1.035125863865362E-004
                    68  2.747179771533763E-004
                    69  3.271137814930471E-005
                    70 -1.044431743176501E-005
                    71  4.471131078892043E-004
                    72  3.270257362651635E-004
                    73  2.475616213987373E-005
                    74 -1.854018751325022E-003
                    75 -9.938761099135429E-006
                    76  2.606108570481529E-005
                    77  9.166218799789357E-006
                    78 -3.757339583106276E-005
                    79 -4.432997165973037E-006
                    80 -4.461300212997761E-004
                    81 -4.395737296035147E-004
                    82  6.628647211027079E-006
                    83  7.767966445516078E-004
                    84  2.393509021094697E-006
                    85  4.860646386361066E-005
                    86  1.106543375000588E-004
                    87  6.664674948927737E-006
                    88 -1.602408240899960E-005
                    89 -1.235622401088704E-005
                    90 -2.598075201989865E-005
                    91  3.522107048146171E-006
                    92  1.351354057364104E-002
                    93 -1.802789356520624E-003
                    94 -3.295891995982068E-004
                    95  3.227099878842757E-003
                    96 -1.714088304320860E-004
                    97  1.204554312936874E-004
                    98 -2.637959071164225E-004
                    99  7.931153653838191E-006
                   100  1.900252203160417E-005
                   101 -5.925932262882385E-004
                   102  3.308916139506151E-005
                   103 -7.016932139423207E-005
                   104  1.781772884971340E-003
                   105 -6.426825677466895E-006
                   106 -2.087792343365817E-005
                   107 -5.684866339136755E-006
                   108 -3.416181782110424E-005
                   109 -4.242089441758619E-006
                   110 -3.783233281078685E-004
                   111  4.851889807621464E-004
                   112 -5.816052296442623E-006
                   113  7.336995521807301E-004
                   114 -9.889353170412306E-006
                   115 -5.152878815015758E-005
                   116  1.018583073490137E-004
                   117 -3.164845746449583E-006
                   118  1.881851560547860E-005
                   119  1.663278380217655E-006
                   120 -3.251817674575570E-005
                   121  4.914888542772421E-006
                   122 -1.503037316924321E-004
                   123 -7.425354257759203E-004
                   124  2.450809924990437E-004
                   125 -2.833066799500723E-004
                   126 -1.872871996485559E-004
                   127  2.386262353594703E-005
                   128 -4.965751904509440E-005
                   129  6.039037731825418E-004
                   130 -8.309640559982045E-006
                   131  6.841041671647783E-005
                   132  6.938552056546358E-004
                   133 -6.254744434470413E-006
                   134  3.884771031975397E-004
                   135  6.916187390822886E-008
                   136  4.161499240723841E-005
                   137  2.874333726323040E-007
                   138 -3.244043440203300E-005
                   139 -2.161909971631966E-006
                   140  1.975025703407873E-004
                   141 -2.610443733298266E-004
                   142  3.013752867044714E-006
                   143 -2.608697018049520E-004
                   144  5.048696229776585E-006
                   145 -1.848950102243863E-005
                   146  1.525200117395384E-005
                   147 -6.861228598516099E-007
                   148 -1.211459355943263E-005
                   149 -2.730747327467097E-006
                   150 -2.351938100345177E-005
                   151 -1.891157303998103E-008
                   152 -1.269838209726924E-004
                   153 -7.039313771515371E-004
                   154  2.563512300475088E-004
                   155 -3.441079478533353E-004
                   156 -1.765631370746546E-004
                   157  1.374502478097308E-005
                   158  3.600078243458203E-005
                   159  5.845032031670415E-004
                   160  4.961384982973312E-006