[Molden Format]
[Atoms] AU
  N     1    7    -0.0799068400   -4.3361656000    0.0000000000        
  C     2    6     0.0331449500   -1.8333115900    0.0000000000        
  C     3    6    -2.3043615000   -0.4326654700    0.0000000000        
  C     4    6     2.3469444500   -0.3980806600    0.0000000000        
  C     5    6    -2.2833202800    2.1482203200    0.0000000000        
  C     6    6     2.2987900500    2.1817579500    0.0000000000        
  C     7    6    -0.0023937800    3.4855781900    0.0000000000        
  H     8    1    -2.7058890300   -5.8348795700    0.0000000000        
  H     9    1     1.6877938200   -5.1396842800    0.0000000000        
  H    10    1    -4.0342277100   -1.4788416000    0.0000000000        
  H    11    1     4.1099952300   -1.4006324100    0.0000000000        
  H    12    1    -4.0366905400    3.1694994900    0.0000000000        
  H    13    1     4.0385966600    3.2259657800    0.0000000000        
  H    14    1    -0.0154739100    5.5129679200    0.0000000000        
[5D]
[7F]
[GTO]
  1  0
   s    12 1.00
  0.114200D+05  0.172695D-04
  0.171200D+04  0.134411D-03
  0.389300D+03  0.694561D-03
  0.110000D+03  0.278531D-02
  0.355700D+02  0.863457D-02
  0.125400D+02  0.199805D-01
  0.464400D+01  0.262908D-01
  0.129300D+01 -0.243845D-01
  0.511800D+00 -0.924934D-01
  0.178700D+00 -0.339683D+00
  0.246240D-01  0.345111D+00
  0.112530D-01  0.752750D+00
   s    10 1.00
  0.114200D+05  0.523000D-03
  0.171200D+04  0.404500D-02
  0.389300D+03  0.207750D-01
  0.110000D+03  0.807269D-01
  0.355700D+02  0.233074D+00
  0.125400D+02  0.433501D+00
  0.464400D+01  0.347472D+00
  0.129300D+01  0.412620D-01
  0.511800D+00 -0.850799D-02
  0.178700D+00  0.238400D-02
   s    10 1.00
  0.114200D+05 -0.115000D-03
  0.171200D+04 -0.895000D-03
  0.389300D+03 -0.462400D-02
  0.110000D+03 -0.185280D-01
  0.355700D+02 -0.573390D-01
  0.125400D+02 -0.132076D+00
  0.464400D+01 -0.172510D+00
  0.129300D+01  0.151814D+00
  0.511800D+00  0.599944D+00
  0.178700D+00  0.387462D+00
   s     1 1.00
  0.129300D+01  0.100000D+01
   s     1 1.00
  0.178700D+00  0.100000D+01
   p     5 1.00
  0.266300D+02  0.146700D-01
  0.594800D+01  0.917640D-01
  0.174200D+01  0.298683D+00
  0.555000D+00  0.498487D+00
  0.172500D+00  0.337023D+00
   p     1 1.00
  0.174200D+01  0.100000D+01
   p     1 1.00
  0.555000D+00  0.100000D+01
   d     1 1.00
  0.165400D+01  0.100000D+01
   d     1 1.00
  0.469000D+00  0.100000D+01
   f     1 1.00
  0.109300D+01  0.100000D+01
  
  2  0
   s    10 1.00
  0.823600D+04  0.531000D-03
  0.123500D+04  0.410800D-02
  0.280800D+03  0.210870D-01
  0.792700D+02  0.818530D-01
  0.255900D+02  0.234817D+00
  0.899700D+01  0.434401D+00
  0.331900D+01  0.346129D+00
  0.905900D+00  0.393780D-01
  0.364300D+00 -0.898300D-02
  0.128500D+00  0.238500D-02
   s    10 1.00
  0.823600D+04 -0.113000D-03
  0.123500D+04 -0.878000D-03
  0.280800D+03 -0.454000D-02
  0.792700D+02 -0.181330D-01
  0.255900D+02 -0.557600D-01
  0.899700D+01 -0.126895D+00
  0.331900D+01 -0.170352D+00
  0.905900D+00  0.140382D+00
  0.364300D+00  0.598684D+00
  0.128500D+00  0.395389D+00
   s     1 1.00
  0.905900D+00  0.100000D+01
   s     1 1.00
  0.364300D+00  0.100000D+01
   p     5 1.00
  0.187100D+02  0.140310D-01
  0.413300D+01  0.868660D-01
  0.120000D+01  0.290216D+00
  0.382700D+00  0.501008D+00
  0.120900D+00  0.343406D+00
   p     1 1.00
  0.382700D+00  0.100000D+01
   p     1 1.00
  0.120900D+00  0.100000D+01
   d     1 1.00
  0.109700D+01  0.100000D+01
   d     1 1.00
  0.318000D+00  0.100000D+01
   f     1 1.00
  0.761000D+00  0.100000D+01
  
  3  0
   s    10 1.00
  0.823600D+04  0.531000D-03
  0.123500D+04  0.410800D-02
  0.280800D+03  0.210870D-01
  0.792700D+02  0.818530D-01
  0.255900D+02  0.234817D+00
  0.899700D+01  0.434401D+00
  0.331900D+01  0.346129D+00
  0.905900D+00  0.393780D-01
  0.364300D+00 -0.898300D-02
  0.128500D+00  0.238500D-02
   s    10 1.00
  0.823600D+04 -0.113000D-03
  0.123500D+04 -0.878000D-03
  0.280800D+03 -0.454000D-02
  0.792700D+02 -0.181330D-01
  0.255900D+02 -0.557600D-01
  0.899700D+01 -0.126895D+00
  0.331900D+01 -0.170352D+00
  0.905900D+00  0.140382D+00
  0.364300D+00  0.598684D+00
  0.128500D+00  0.395389D+00
   s     1 1.00
  0.905900D+00  0.100000D+01
   s     1 1.00
  0.364300D+00  0.100000D+01
   p     5 1.00
  0.187100D+02  0.140310D-01
  0.413300D+01  0.868660D-01
  0.120000D+01  0.290216D+00
  0.382700D+00  0.501008D+00
  0.120900D+00  0.343406D+00
   p     1 1.00
  0.382700D+00  0.100000D+01
   p     1 1.00
  0.120900D+00  0.100000D+01
   d     1 1.00
  0.109700D+01  0.100000D+01
   d     1 1.00
  0.318000D+00  0.100000D+01
   f     1 1.00
  0.761000D+00  0.100000D+01
  
  4  0
   s    10 1.00
  0.823600D+04  0.531000D-03
  0.123500D+04  0.410800D-02
  0.280800D+03  0.210870D-01
  0.792700D+02  0.818530D-01
  0.255900D+02  0.234817D+00
  0.899700D+01  0.434401D+00
  0.331900D+01  0.346129D+00
  0.905900D+00  0.393780D-01
  0.364300D+00 -0.898300D-02
  0.128500D+00  0.238500D-02
   s    10 1.00
  0.823600D+04 -0.113000D-03
  0.123500D+04 -0.878000D-03
  0.280800D+03 -0.454000D-02
  0.792700D+02 -0.181330D-01
  0.255900D+02 -0.557600D-01
  0.899700D+01 -0.126895D+00
  0.331900D+01 -0.170352D+00
  0.905900D+00  0.140382D+00
  0.364300D+00  0.598684D+00
  0.128500D+00  0.395389D+00
   s     1 1.00
  0.905900D+00  0.100000D+01
   s     1 1.00
  0.364300D+00  0.100000D+01
   p     5 1.00
  0.187100D+02  0.140310D-01
  0.413300D+01  0.868660D-01
  0.120000D+01  0.290216D+00
  0.382700D+00  0.501008D+00
  0.120900D+00  0.343406D+00
   p     1 1.00
  0.382700D+00  0.100000D+01
   p     1 1.00
  0.120900D+00  0.100000D+01
   d     1 1.00
  0.109700D+01  0.100000D+01
   d     1 1.00
  0.318000D+00  0.100000D+01
   f     1 1.00
  0.761000D+00  0.100000D+01
  
  5  0
   s    10 1.00
  0.823600D+04  0.531000D-03
  0.123500D+04  0.410800D-02
  0.280800D+03  0.210870D-01
  0.792700D+02  0.818530D-01
  0.255900D+02  0.234817D+00
  0.899700D+01  0.434401D+00
  0.331900D+01  0.346129D+00
  0.905900D+00  0.393780D-01
  0.364300D+00 -0.898300D-02
  0.128500D+00  0.238500D-02
   s    10 1.00
  0.823600D+04 -0.113000D-03
  0.123500D+04 -0.878000D-03
  0.280800D+03 -0.454000D-02
  0.792700D+02 -0.181330D-01
  0.255900D+02 -0.557600D-01
  0.899700D+01 -0.126895D+00
  0.331900D+01 -0.170352D+00
  0.905900D+00  0.140382D+00
  0.364300D+00  0.598684D+00
  0.128500D+00  0.395389D+00
   s     1 1.00
  0.905900D+00  0.100000D+01
   s     1 1.00
  0.364300D+00  0.100000D+01
   p     5 1.00
  0.187100D+02  0.140310D-01
  0.413300D+01  0.868660D-01
  0.120000D+01  0.290216D+00
  0.382700D+00  0.501008D+00
  0.120900D+00  0.343406D+00
   p     1 1.00
  0.382700D+00  0.100000D+01
   p     1 1.00
  0.120900D+00  0.100000D+01
   d     1 1.00
  0.109700D+01  0.100000D+01
   d     1 1.00
  0.318000D+00  0.100000D+01
   f     1 1.00
  0.761000D+00  0.100000D+01
  
  6  0
   s    10 1.00
  0.823600D+04  0.531000D-03
  0.123500D+04  0.410800D-02
  0.280800D+03  0.210870D-01
  0.792700D+02  0.818530D-01
  0.255900D+02  0.234817D+00
  0.899700D+01  0.434401D+00
  0.331900D+01  0.346129D+00
  0.905900D+00  0.393780D-01
  0.364300D+00 -0.898300D-02
  0.128500D+00  0.238500D-02
   s    10 1.00
  0.823600D+04 -0.113000D-03
  0.123500D+04 -0.878000D-03
  0.280800D+03 -0.454000D-02
  0.792700D+02 -0.181330D-01
  0.255900D+02 -0.557600D-01
  0.899700D+01 -0.126895D+00
  0.331900D+01 -0.170352D+00
  0.905900D+00  0.140382D+00
  0.364300D+00  0.598684D+00
  0.128500D+00  0.395389D+00
   s     1 1.00
  0.905900D+00  0.100000D+01
   s     1 1.00
  0.364300D+00  0.100000D+01
   p     5 1.00
  0.187100D+02  0.140310D-01
  0.413300D+01  0.868660D-01
  0.120000D+01  0.290216D+00
  0.382700D+00  0.501008D+00
  0.120900D+00  0.343406D+00
   p     1 1.00
  0.382700D+00  0.100000D+01
   p     1 1.00
  0.120900D+00  0.100000D+01
   d     1 1.00
  0.109700D+01  0.100000D+01
   d     1 1.00
  0.318000D+00  0.100000D+01
   f     1 1.00
  0.761000D+00  0.100000D+01
  
  7  0
   s    10 1.00
  0.823600D+04  0.531000D-03
  0.123500D+04  0.410800D-02
  0.280800D+03  0.210870D-01
  0.792700D+02  0.818530D-01
  0.255900D+02  0.234817D+00
  0.899700D+01  0.434401D+00
  0.331900D+01  0.346129D+00
  0.905900D+00  0.393780D-01
  0.364300D+00 -0.898300D-02
  0.128500D+00  0.238500D-02
   s    10 1.00
  0.823600D+04 -0.113000D-03
  0.123500D+04 -0.878000D-03
  0.280800D+03 -0.454000D-02
  0.792700D+02 -0.181330D-01
  0.255900D+02 -0.557600D-01
  0.899700D+01 -0.126895D+00
  0.331900D+01 -0.170352D+00
  0.905900D+00  0.140382D+00
  0.364300D+00  0.598684D+00
  0.128500D+00  0.395389D+00
   s     1 1.00
  0.905900D+00  0.100000D+01
   s     1 1.00
  0.364300D+00  0.100000D+01
   p     5 1.00
  0.187100D+02  0.140310D-01
  0.413300D+01  0.868660D-01
  0.120000D+01  0.290216D+00
  0.382700D+00  0.501008D+00
  0.120900D+00  0.343406D+00
   p     1 1.00
  0.382700D+00  0.100000D+01
   p     1 1.00
  0.120900D+00  0.100000D+01
   d     1 1.00
  0.109700D+01  0.100000D+01
   d     1 1.00
  0.318000D+00  0.100000D+01
   f     1 1.00
  0.761000D+00  0.100000D+01
  
  8  0
   s     4 1.00
  0.130100D+02  0.196850D-01
  0.196200D+01  0.137977D+00
  0.444600D+00  0.478148D+00
  0.122000D+00  0.501240D+00
   s     1 1.00
  0.122000D+00  0.100000D+01
   p     1 1.00
  0.727000D+00  0.100000D+01
  
  9  0
   s     4 1.00
  0.130100D+02  0.196850D-01
  0.196200D+01  0.137977D+00
  0.444600D+00  0.478148D+00
  0.122000D+00  0.501240D+00
   s     1 1.00
  0.122000D+00  0.100000D+01
   p     1 1.00
  0.727000D+00  0.100000D+01
  
 10  0
   s     4 1.00
  0.130100D+02  0.196850D-01
  0.196200D+01  0.137977D+00
  0.444600D+00  0.478148D+00
  0.122000D+00  0.501240D+00
   s     1 1.00
  0.122000D+00  0.100000D+01
   p     1 1.00
  0.727000D+00  0.100000D+01
  
 11  0
   s     4 1.00
  0.130100D+02  0.196850D-01
  0.196200D+01  0.137977D+00
  0.444600D+00  0.478148D+00
  0.122000D+00  0.501240D+00
   s     1 1.00
  0.122000D+00  0.100000D+01
   p     1 1.00
  0.727000D+00  0.100000D+01
  
 12  0
   s     4 1.00
  0.130100D+02  0.196850D-01
  0.196200D+01  0.137977D+00
  0.444600D+00  0.478148D+00
  0.122000D+00  0.501240D+00
   s     1 1.00
  0.122000D+00  0.100000D+01
   p     1 1.00
  0.727000D+00  0.100000D+01
  
 13  0
   s     4 1.00
  0.130100D+02  0.196850D-01
  0.196200D+01  0.137977D+00
  0.444600D+00  0.478148D+00
  0.122000D+00  0.501240D+00
   s     1 1.00
  0.122000D+00  0.100000D+01
   p     1 1.00
  0.727000D+00  0.100000D+01
  
 14  0
   s     4 1.00
  0.130100D+02  0.196850D-01
  0.196200D+01  0.137977D+00
  0.444600D+00  0.478148D+00
  0.122000D+00  0.501240D+00
   s     1 1.00
  0.122000D+00  0.100000D+01
   p     1 1.00
  0.727000D+00  0.100000D+01
  
[MO]
 Sym= __1_A__
 Ene=   1.00000000000000     
 Spin= Alpha
 Occup=    1.00000000000000     
                     1  6.720899225673789E-005
                     2  0.998374528710721     
                     3  3.064935820944504E-003
                     4  1.710232417096160E-003
                     5  4.788429340104659E-003
                     6  3.404236909868733E-003
                     7  6.359142330488955E-003
                     8  3.917753732521541E-012
                     9 -5.981102388983824E-004
                    10 -5.508772509227404E-004
                    11  3.606072658490146E-012
                    12 -2.312225918950735E-003
                    13 -1.493552427875725E-003
                    14 -7.509523560201757E-012
                    15 -1.340987371879736E-004
                    16 -7.810955903202218E-013
                    17 -1.092300113526757E-012
                    18 -1.865770728231924E-004
                    19 -6.250018745767697E-005
                    20  1.476053054440560E-004
                    21 -1.244846282407554E-012
                    22 -3.789269565104249E-012
                    23 -3.706961140478408E-004
                    24  4.880828208089359E-004
                    25  8.212780181371036E-013
                    26 -1.362674179053777E-005
                    27 -6.655636704605916E-005
                    28 -1.835411621588058E-012
                    29 -4.266523047713514E-013
                    30  3.217564444587477E-005
                    31 -1.504820718120594E-004
                    32 -3.729613338321461E-004
                    33  1.555166362853171E-003
                    34  3.123681658880738E-004
                    35 -4.410023137125455E-004
                    36 -2.872326970286815E-004
                    37 -5.254908429839228E-003
                    38 -3.252201788597191E-012
                    39  4.227563701798006E-004
                    40  5.235768621305867E-004
                    41  1.101272723808539E-011
                    42 -2.001514414218373E-003
                    43  5.446182784192807E-003
                    44 -1.742522589391666E-012
                    45 -1.592906244279983E-005
                    46 -7.138784161228937E-013
                    47  6.665758888051917E-012
                    48 -2.366140282625870E-004
                    49 -1.280710156220070E-005
                    50 -2.734453542896938E-004
                    51  2.028190578346501E-012
                    52 -1.274641360107163E-011
                    53  7.198476030147103E-005
                    54  7.361438349810500E-004
                    55  2.368276686228052E-012
                    56 -1.327369044656699E-005
                    57 -5.379826727170244E-005
                    58 -4.528888248058092E-012
                    59  1.047229743497433E-012
                    60  4.237298056390901E-005
                    61 -1.269748235495283E-004
                    62 -4.537705406050759E-004
                    63 -2.192797265231769E-003
                    64 -8.360490354056528E-005
                    65  1.945946855082164E-003
                    66 -7.095545416070247E-004
                    67  5.466494666654652E-004
                    68  3.669687762981038E-012
                    69  3.693161606765917E-004
                    70  8.407140563758838E-004
                    71 -3.023994026796356E-013
                    72 -1.886687996210776E-003
                    73  8.509201662732495E-004
                    74  7.054379168192171E-013
                    75 -3.856608433219046E-005
                    76  3.540358370517581E-013
                    77 -2.254667227118245E-012
                    78 -7.812021067346700E-005
                    79 -2.481261937455002E-005
                    80 -1.208678565342289E-004
                    81  3.883470527569994E-012
                    82  2.830396627189741E-012
                    83  1.190693366948395E-005
                    84  9.952968420603641E-005
                    85  4.324077166803010E-012
                    86  1.338323330688199E-005
                    87 -5.051462636978719E-005
                    88  1.457446472107623E-012
                    89  3.799910057614807E-012
                    90 -2.657289389566734E-005
                    91 -1.467890276815345E-004
                    92 -1.789898002231643E-004
                    93 -1.270159933697245E-003
                    94  2.035917402274539E-004
                    95 -1.529519321994189E-004
                    96  6.223889779589654E-004
                    97  7.667577583238282E-004
                    98 -1.791002754118390E-011
                    99  3.876389006627967E-004
                   100  3.749283922821480E-004
                   101  2.317253372609687E-011
                   102  4.548677001775207E-004
                   103 -1.604754795593093E-003
                   104  9.594000674501562E-012
                   105  4.222019952557988E-007
                   106  3.199313371114690E-012
                   107 -3.998160504740515E-012
                   108 -8.407380754403744E-005
                   109 -1.882553335636301E-005
                   110  9.330677212333981E-005
                   111 -5.540294885031583E-012
                   112  1.276656953676747E-011
                   113 -1.403988322190210E-004
                   114 -4.544009058294763E-005
                   115  5.720895554956543E-013
                   116 -2.687914284249059E-005
                   117 -2.716799645427880E-005
                   118 -3.459585635985660E-012
                   119 -1.698683878239152E-012
                   120 -1.724229554825139E-005
                   121 -3.113132150744131E-005
                   122 -2.527801984874667E-004
                   123 -4.734833637765962E-004
                   124  1.728077430837070E-004
                   125  2.917125038405881E-004
                   126 -1.290705612227750E-005
                   127 -5.936882731692785E-004
                   128  2.045197399802373E-011
                   129  1.824414055253404E-004
                   130  6.416545420374798E-004
                   131 -1.526164193945416E-011
                   132  5.617201504560157E-004
                   133  2.011895061693974E-003
                   134 -6.996492709936026E-012
                   135  1.487367968584486E-005
                   136  1.252127772447423E-014
                   137  8.601692784336369E-013
                   138  3.905163800744580E-005
                   139  1.969883945209942E-006
                   140  1.786631808142807E-004
                   141 -1.954505134845032E-013
                   142 -5.197270880488105E-012
                   143  3.720236246074960E-004
                   144  2.335155661051594E-004
                   145  2.702690932285986E-012
                   146 -9.433951682904807E-006
                   147 -5.886627821085466E-005
                   148  1.257764261725144E-013
                   149 -1.081341555727100E-013
                   150 -1.394946932613183E-005
                   151 -4.392799052412412E-005
                   152 -1.625913777501266E-004
                   153 -1.796152045050613E-004
                   154  5.766738451381059E-005
                   155  2.690222672639047E-004
                   156 -2.841402742067051E-005
                   157 -5.353826758643963E-004
                   158  5.758790440455385E-012
                   159  3.740520366875836E-005
                   160  6.283931894404293E-005
                   161 -5.750245178793503E-012
                   162  7.879241325877321E-004
                   163 -2.865144893302236E-004
                   164 -1.110860055684414E-011
                   165 -1.420466524887640E-006
                   166 -4.030869095505120E-012
                   167 -8.422425460603177E-013
                   168 -6.212445713688418E-006
                   169  8.801259518539358E-007
                   170  9.131433122946802E-005
                   171  1.097736865615046E-012
                   172  1.001155859597989E-011
                   173  2.575945533343448E-005
                   174 -2.469345147599589E-005
                   175 -1.745077031092484E-012
                   176  9.010921454636810E-007
                   177 -1.067109372086130E-005
                   178  1.117546619827020E-012
                   179  7.152165014890507E-013
                   180 -1.313829052401306E-005
                   181 -1.937170634114091E-005
                   182 -1.647458348628665E-004
                   183 -4.782271565225007E-004
                   184  4.031673836079238E-005
                   185  2.385443368720616E-004
                   186 -4.457380871437034E-005
                   187 -4.744755381443880E-005
                   188 -1.420113124529979E-013
                   189  2.415178144609601E-004
                   190  7.538554760831863E-005
                   191 -3.869343867676784E-012
                   192  1.329461118405746E-003
                   193 -1.932116846024551E-004
                   194  5.139137409306859E-012
                   195  6.105450636160910E-007
                   196 -4.511747415018487E-013
                   197 -1.030305709366272E-012
                   198 -1.237339482717042E-005
                   199  3.077514894033207E-006
                   200 -5.099642964149671E-006
                   201 -3.139415395371143E-012
                   202 -5.915646202989248E-012
                   203 -8.099152920842412E-005
                   204 -1.878099353205179E-004
                   205 -8.808742409073872E-013
                   206 -8.554137414327894E-006
                   207 -4.669118752287786E-006
                   208  2.295799958827104E-012
                   209 -2.041496230318010E-012
                   210  6.710967571767361E-006
                   211 -8.296375454924717E-006
                   212  8.898852688298952E-005
                   213  2.231891231205233E-005
                   214  1.455280983413668E-004
                   215  1.389207414492302E-004
                   216 -2.047291744850310E-012
                   217  1.748895789070718E-003
                   218 -1.710827515830051E-003
                   219 -4.415938582232363E-004
                   220  2.104280187165753E-004
                   221  3.351954350703792E-013
                   222 -4.594813371845582E-004
                   223 -6.907806500777914E-004
                   224 -6.255195591261374E-006
                   225 -6.097990781054902E-005
                   226 -2.497978838397917E-012
                   227 -3.232117605405296E-004
                   228 -4.319634480827158E-004
                   229 -1.405451692426699E-005
                   230 -2.381187255721183E-005
                   231  8.679643052093877E-013
                   232 -1.111817300526889E-004
                   233 -4.548698100702560E-004
                   234  3.737595897230653E-007
                   235  1.191009583426511E-006
                   236  2.350092091402749E-012
                   237 -1.702384283426539E-004
                   238 -4.227406032436794E-004
                   239  3.452283083921052E-006
                   240 -7.900839954707565E-007
                   241 -1.837617403445340E-013
                   242  9.408770169723590E-006
                   243  1.335056487705957E-006
                   244 -6.409297988112925E-008
                   245  2.614088992878930E-005
                   246  5.408788476559096E-012
 Sym= __2_A__
 Ene=   2.00000000000000     
 Spin= Alpha
 Occup=    1.00000000000000     
                     1 -4.983897340360262E-005
                     2 -3.150440499955763E-004
                     3  2.590939333036539E-003
                     4  1.462324058615474E-004
                     5  1.421826325834799E-003
                     6 -3.391635023049637E-004
                     7  3.091694036828809E-003
                     8 -4.584324692976690E-012
                     9 -2.881845264058715E-005
                    10 -1.097996099616865E-004
                    11  4.425713033352495E-012
                    12  3.416585500516205E-006
                    13 -4.437445796989547E-004
                    14 -7.368707343314875E-012
                    15  3.835131124998578E-005
                    16  1.969180301299708E-013
                    17  2.059006980271656E-013
                    18 -4.834274013375572E-005
                    19  1.813447739785705E-005
                    20 -1.265985938625598E-004
                    21  2.028137758527123E-013
                    22 -3.857093955614506E-012
                    23  1.781502881780955E-004
                    24 -1.254330048866121E-004
                    25 -1.278220245947412E-012
                    26 -1.744828935029053E-005
                    27  9.322585683072051E-005
                    28  4.807013678351694E-012
                    29 -4.994591169049419E-013
                    30 -5.948888070243505E-005
                    31  1.345398427319857E-004
                    32   1.00100251533367     
                    33  9.324749819527732E-003
                    34  2.706656104742387E-003
                    35 -8.011939393252260E-003
                    36 -7.212253644323833E-006
                    37 -3.394091476428138E-003
                    38  1.350486214749202E-012
                    39 -1.976552761131086E-004
                    40  1.704286079438820E-004
                    41  4.626611001699941E-012
                    42 -1.225281751333387E-004
                    43  4.227176473105657E-003
                    44  1.815434797277660E-012
                    45 -5.635890975929542E-004
                    46 -1.347782668938940E-012
                    47  1.009454950683978E-012
                    48 -2.397235737612800E-004
                    49  4.463011223072909E-005
                    50  5.178647318930278E-004
                    51 -4.854408383812358E-012
                    52 -1.330021111792924E-011
                    53 -6.996290704674180E-004
                    54 -3.576764484722958E-004
                    55  1.153962160815439E-013
                    56  1.270933028914601E-005
                    57  1.061146817179599E-004
                    58 -1.809792972491546E-012
                    59 -4.709579037074692E-013
                    60 -3.531470814274247E-005
                    61  4.033798111689351E-004
                    62  8.641502186973999E-003
                    63 -2.084956859894849E-003
                    64 -2.378081710039377E-004
                    65  2.716484460945800E-003
                    66 -2.537588770798493E-006
                    67  6.438503810948222E-005
                    68 -8.366102473589108E-012
                    69  5.561467418312473E-004
                    70  1.289228643645966E-004
                    71  7.390972712545776E-012
                    72 -2.150761716356931E-003
                    73  2.733162303855155E-004
                    74 -2.591911768399132E-012
                    75  3.389747136039684E-005
                    76 -2.774901190845460E-012
                    77 -2.404073026836998E-012
                    78 -4.400685400125602E-006
                    79  8.182658904080841E-007
                    80 -4.088555196257235E-004
                    81 -4.575635966136353E-013
                    82  1.558760611524938E-011
                    83 -6.178996398845717E-004
                    84 -2.475436989198319E-004
                    85  9.996077053554538E-013
                    86  2.671440418130768E-005
                    87 -5.777023367084106E-005
                    88 -4.171294401028722E-012
                    89  5.028680832909814E-012
                    90  4.389309309284143E-005
                    91  1.530257004869195E-004
                    92  1.020286850354027E-002
                    93 -2.086951107820517E-003
                    94 -3.160975715711002E-004
                    95  3.207582617188958E-003
                    96  5.903149987368958E-005
                    97  2.481644178782107E-005
                    98 -1.796305497850773E-011
                    99 -9.410841012745058E-004
                   100  2.245712797080630E-005
                   101  1.166053492227463E-011
                   102  1.823068450273159E-003
                   103  2.811220086270126E-005
                   104  4.397074694524659E-013
                   105  2.134172725983666E-005
                   106  2.038926270008707E-012
                   107 -4.294135310767917E-012
                   108 -9.994873808746827E-007
                   109  1.272908968502580E-005
                   110 -4.243617335883726E-004
                   111 -2.336383084011598E-012
                   112  5.531614746366873E-012
                   113 -3.877911821705640E-004
                   114  2.724077621714584E-004
                   115  2.699586789380488E-013
                   116 -2.541732395270267E-005
                   117 -6.890958259599304E-005
                   118 -1.026357901806890E-013
                   119  8.125185193612571E-013
                   120 -1.080999911369624E-005
                   121  1.357132216176357E-004
                   122 -1.929100430921964E-004
                   123 -7.115142173494996E-004
                   124  2.241041242768624E-004
                   125 -7.486227625263469E-005
                   126  7.677988267999106E-006
                   127 -3.371537037299249E-004
                   128  6.828931278673708E-012
                   129 -8.976608352519388E-005
                   130  5.794030785053850E-004
                   131 -1.887777726679204E-011
                   132  3.664127027045242E-004
                   133  9.193552449413906E-004
                   134  1.687941809653786E-011
                   135  1.641977854518915E-005
                   136 -6.083946061434639E-013
                   137 -2.467460276674890E-012
                   138  3.008458490912890E-006
                   139  4.406857056017375E-005
                   140  1.330844882582009E-004
                   141 -4.757541811120700E-012
                   142  4.601955916311407E-012
                   143  2.423813799735458E-004
                   144 -1.046440856201574E-004
                   145 -2.746698893145251E-012
                   146  1.027346395546756E-005
                   147 -3.758091962693023E-005
                   148  1.147955839991844E-013
                   149 -2.106613242264365E-012
                   150 -4.788265265083349E-005
                   151  3.789799432372535E-005
                   152 -1.258548936647827E-004
                   153 -6.991230317265664E-004
                   154  2.316888929315389E-004
                   155 -3.147247863273909E-005
                   156 -2.824868489297846E-005
                   157 -3.316588359073264E-004
                   158 -4.262826869523101E-012
                   159  1.342479593885001E-004
                   160  5.375747259327570E-004