[Molden Format]
[Atoms] AU
  N     1    7    -0.0799068400   -4.3361656000    0.0000000000        
  C     2    6     0.0331449500   -1.8333115900    0.0000000000        
  C     3    6    -2.3043615000   -0.4326654700    0.0000000000        
  C     4    6     2.3469444500   -0.3980806600    0.0000000000        
  C     5    6    -2.2833202800    2.1482203200    0.0000000000        
  C     6    6     2.2987900500    2.1817579500    0.0000000000        
  C     7    6    -0.0023937800    3.4855781900    0.0000000000        
  H     8    1    -2.7058890300   -5.8348795700    0.0000000000        
  H     9    1     1.6877938200   -5.1396842800    0.0000000000        
  H    10    1    -4.0342277100   -1.4788416000    0.0000000000        
  H    11    1     4.1099952300   -1.4006324100    0.0000000000        
  H    12    1    -4.0366905400    3.1694994900    0.0000000000        
  H    13    1     4.0385966600    3.2259657800    0.0000000000        
  H    14    1    -0.0154739100    5.5129679200    0.0000000000        
[5D]
[7F]
[GTO]
  1  0
   s    12 1.00
  0.114200D+05  0.172695D-04
  0.171200D+04  0.134411D-03
  0.389300D+03  0.694561D-03
  0.110000D+03  0.278531D-02
  0.355700D+02  0.863457D-02
  0.125400D+02  0.199805D-01
  0.464400D+01  0.262908D-01
  0.129300D+01 -0.243845D-01
  0.511800D+00 -0.924934D-01
  0.178700D+00 -0.339683D+00
  0.246240D-01  0.345111D+00
  0.112530D-01  0.752750D+00
   s    10 1.00
  0.114200D+05  0.523000D-03
  0.171200D+04  0.404500D-02
  0.389300D+03  0.207750D-01
  0.110000D+03  0.807269D-01
  0.355700D+02  0.233074D+00
  0.125400D+02  0.433501D+00
  0.464400D+01  0.347472D+00
  0.129300D+01  0.412620D-01
  0.511800D+00 -0.850799D-02
  0.178700D+00  0.238400D-02
   s    10 1.00
  0.114200D+05 -0.115000D-03
  0.171200D+04 -0.895000D-03
  0.389300D+03 -0.462400D-02
  0.110000D+03 -0.185280D-01
  0.355700D+02 -0.573390D-01
  0.125400D+02 -0.132076D+00
  0.464400D+01 -0.172510D+00
  0.129300D+01  0.151814D+00
  0.511800D+00  0.599944D+00
  0.178700D+00  0.387462D+00
   s     1 1.00
  0.129300D+01  0.100000D+01
   s     1 1.00
  0.178700D+00  0.100000D+01
   p     5 1.00
  0.266300D+02  0.146700D-01
  0.594800D+01  0.917640D-01
  0.174200D+01  0.298683D+00
  0.555000D+00  0.498487D+00
  0.172500D+00  0.337023D+00
   p     1 1.00
  0.174200D+01  0.100000D+01
   p     1 1.00
  0.555000D+00  0.100000D+01
   d     1 1.00
  0.165400D+01  0.100000D+01
   d     1 1.00
  0.469000D+00  0.100000D+01
   f     1 1.00
  0.109300D+01  0.100000D+01
  
  2  0
   s    10 1.00
  0.823600D+04  0.531000D-03
  0.123500D+04  0.410800D-02
  0.280800D+03  0.210870D-01
  0.792700D+02  0.818530D-01
  0.255900D+02  0.234817D+00
  0.899700D+01  0.434401D+00
  0.331900D+01  0.346129D+00
  0.905900D+00  0.393780D-01
  0.364300D+00 -0.898300D-02
  0.128500D+00  0.238500D-02
   s    10 1.00
  0.823600D+04 -0.113000D-03
  0.123500D+04 -0.878000D-03
  0.280800D+03 -0.454000D-02
  0.792700D+02 -0.181330D-01
  0.255900D+02 -0.557600D-01
  0.899700D+01 -0.126895D+00
  0.331900D+01 -0.170352D+00
  0.905900D+00  0.140382D+00
  0.364300D+00  0.598684D+00
  0.128500D+00  0.395389D+00
   s     1 1.00
  0.905900D+00  0.100000D+01
   s     1 1.00
  0.364300D+00  0.100000D+01
   p     5 1.00
  0.187100D+02  0.140310D-01
  0.413300D+01  0.868660D-01
  0.120000D+01  0.290216D+00
  0.382700D+00  0.501008D+00
  0.120900D+00  0.343406D+00
   p     1 1.00
  0.382700D+00  0.100000D+01
   p     1 1.00
  0.120900D+00  0.100000D+01
   d     1 1.00
  0.109700D+01  0.100000D+01
   d     1 1.00
  0.318000D+00  0.100000D+01
   f     1 1.00
  0.761000D+00  0.100000D+01
  
  3  0
   s    10 1.00
  0.823600D+04  0.531000D-03
  0.123500D+04  0.410800D-02
  0.280800D+03  0.210870D-01
  0.792700D+02  0.818530D-01
  0.255900D+02  0.234817D+00
  0.899700D+01  0.434401D+00
  0.331900D+01  0.346129D+00
  0.905900D+00  0.393780D-01
  0.364300D+00 -0.898300D-02
  0.128500D+00  0.238500D-02
   s    10 1.00
  0.823600D+04 -0.113000D-03
  0.123500D+04 -0.878000D-03
  0.280800D+03 -0.454000D-02
  0.792700D+02 -0.181330D-01
  0.255900D+02 -0.557600D-01
  0.899700D+01 -0.126895D+00
  0.331900D+01 -0.170352D+00
  0.905900D+00  0.140382D+00
  0.364300D+00  0.598684D+00
  0.128500D+00  0.395389D+00
   s     1 1.00
  0.905900D+00  0.100000D+01
   s     1 1.00
  0.364300D+00  0.100000D+01
   p     5 1.00
  0.187100D+02  0.140310D-01
  0.413300D+01  0.868660D-01
  0.120000D+01  0.290216D+00
  0.382700D+00  0.501008D+00
  0.120900D+00  0.343406D+00
   p     1 1.00
  0.382700D+00  0.100000D+01
   p     1 1.00
  0.120900D+00  0.100000D+01
   d     1 1.00
  0.109700D+01  0.100000D+01
   d     1 1.00
  0.318000D+00  0.100000D+01
   f     1 1.00
  0.761000D+00  0.100000D+01
  
  4  0
   s    10 1.00
  0.823600D+04  0.531000D-03
  0.123500D+04  0.410800D-02
  0.280800D+03  0.210870D-01
  0.792700D+02  0.818530D-01
  0.255900D+02  0.234817D+00
  0.899700D+01  0.434401D+00
  0.331900D+01  0.346129D+00
  0.905900D+00  0.393780D-01
  0.364300D+00 -0.898300D-02
  0.128500D+00  0.238500D-02
   s    10 1.00
  0.823600D+04 -0.113000D-03
  0.123500D+04 -0.878000D-03
  0.280800D+03 -0.454000D-02
  0.792700D+02 -0.181330D-01
  0.255900D+02 -0.557600D-01
  0.899700D+01 -0.126895D+00
  0.331900D+01 -0.170352D+00
  0.905900D+00  0.140382D+00
  0.364300D+00  0.598684D+00
  0.128500D+00  0.395389D+00
   s     1 1.00
  0.905900D+00  0.100000D+01
   s     1 1.00
  0.364300D+00  0.100000D+01
   p     5 1.00
  0.187100D+02  0.140310D-01
  0.413300D+01  0.868660D-01
  0.120000D+01  0.290216D+00
  0.382700D+00  0.501008D+00
  0.120900D+00  0.343406D+00
   p     1 1.00
  0.382700D+00  0.100000D+01
   p     1 1.00
  0.120900D+00  0.100000D+01
   d     1 1.00
  0.109700D+01  0.100000D+01
   d     1 1.00
  0.318000D+00  0.100000D+01
   f     1 1.00
  0.761000D+00  0.100000D+01
  
  5  0
   s    10 1.00
  0.823600D+04  0.531000D-03
  0.123500D+04  0.410800D-02
  0.280800D+03  0.210870D-01
  0.792700D+02  0.818530D-01
  0.255900D+02  0.234817D+00
  0.899700D+01  0.434401D+00
  0.331900D+01  0.346129D+00
  0.905900D+00  0.393780D-01
  0.364300D+00 -0.898300D-02
  0.128500D+00  0.238500D-02
   s    10 1.00
  0.823600D+04 -0.113000D-03
  0.123500D+04 -0.878000D-03
  0.280800D+03 -0.454000D-02
  0.792700D+02 -0.181330D-01
  0.255900D+02 -0.557600D-01
  0.899700D+01 -0.126895D+00
  0.331900D+01 -0.170352D+00
  0.905900D+00  0.140382D+00
  0.364300D+00  0.598684D+00
  0.128500D+00  0.395389D+00
   s     1 1.00
  0.905900D+00  0.100000D+01
   s     1 1.00
  0.364300D+00  0.100000D+01
   p     5 1.00
  0.187100D+02  0.140310D-01
  0.413300D+01  0.868660D-01
  0.120000D+01  0.290216D+00
  0.382700D+00  0.501008D+00
  0.120900D+00  0.343406D+00
   p     1 1.00
  0.382700D+00  0.100000D+01
   p     1 1.00
  0.120900D+00  0.100000D+01
   d     1 1.00
  0.109700D+01  0.100000D+01
   d     1 1.00
  0.318000D+00  0.100000D+01
   f     1 1.00
  0.761000D+00  0.100000D+01
  
  6  0
   s    10 1.00
  0.823600D+04  0.531000D-03
  0.123500D+04  0.410800D-02
  0.280800D+03  0.210870D-01
  0.792700D+02  0.818530D-01
  0.255900D+02  0.234817D+00
  0.899700D+01  0.434401D+00
  0.331900D+01  0.346129D+00
  0.905900D+00  0.393780D-01
  0.364300D+00 -0.898300D-02
  0.128500D+00  0.238500D-02
   s    10 1.00
  0.823600D+04 -0.113000D-03
  0.123500D+04 -0.878000D-03
  0.280800D+03 -0.454000D-02
  0.792700D+02 -0.181330D-01
  0.255900D+02 -0.557600D-01
  0.899700D+01 -0.126895D+00
  0.331900D+01 -0.170352D+00
  0.905900D+00  0.140382D+00
  0.364300D+00  0.598684D+00
  0.128500D+00  0.395389D+00
   s     1 1.00
  0.905900D+00  0.100000D+01
   s     1 1.00
  0.364300D+00  0.100000D+01
   p     5 1.00
  0.187100D+02  0.140310D-01
  0.413300D+01  0.868660D-01
  0.120000D+01  0.290216D+00
  0.382700D+00  0.501008D+00
  0.120900D+00  0.343406D+00
   p     1 1.00
  0.382700D+00  0.100000D+01
   p     1 1.00
  0.120900D+00  0.100000D+01
   d     1 1.00
  0.109700D+01  0.100000D+01
   d     1 1.00
  0.318000D+00  0.100000D+01
   f     1 1.00
  0.761000D+00  0.100000D+01
  
  7  0
   s    10 1.00
  0.823600D+04  0.531000D-03
  0.123500D+04  0.410800D-02
  0.280800D+03  0.210870D-01
  0.792700D+02  0.818530D-01
  0.255900D+02  0.234817D+00
  0.899700D+01  0.434401D+00
  0.331900D+01  0.346129D+00
  0.905900D+00  0.393780D-01
  0.364300D+00 -0.898300D-02
  0.128500D+00  0.238500D-02
   s    10 1.00
  0.823600D+04 -0.113000D-03
  0.123500D+04 -0.878000D-03
  0.280800D+03 -0.454000D-02
  0.792700D+02 -0.181330D-01
  0.255900D+02 -0.557600D-01
  0.899700D+01 -0.126895D+00
  0.331900D+01 -0.170352D+00
  0.905900D+00  0.140382D+00
  0.364300D+00  0.598684D+00
  0.128500D+00  0.395389D+00
   s     1 1.00
  0.905900D+00  0.100000D+01
   s     1 1.00
  0.364300D+00  0.100000D+01
   p     5 1.00
  0.187100D+02  0.140310D-01
  0.413300D+01  0.868660D-01
  0.120000D+01  0.290216D+00
  0.382700D+00  0.501008D+00
  0.120900D+00  0.343406D+00
   p     1 1.00
  0.382700D+00  0.100000D+01
   p     1 1.00
  0.120900D+00  0.100000D+01
   d     1 1.00
  0.109700D+01  0.100000D+01
   d     1 1.00
  0.318000D+00  0.100000D+01
   f     1 1.00
  0.761000D+00  0.100000D+01
  
  8  0
   s     4 1.00
  0.130100D+02  0.196850D-01
  0.196200D+01  0.137977D+00
  0.444600D+00  0.478148D+00
  0.122000D+00  0.501240D+00
   s     1 1.00
  0.122000D+00  0.100000D+01
   p     1 1.00
  0.727000D+00  0.100000D+01
  
  9  0
   s     4 1.00
  0.130100D+02  0.196850D-01
  0.196200D+01  0.137977D+00
  0.444600D+00  0.478148D+00
  0.122000D+00  0.501240D+00
   s     1 1.00
  0.122000D+00  0.100000D+01
   p     1 1.00
  0.727000D+00  0.100000D+01
  
 10  0
   s     4 1.00
  0.130100D+02  0.196850D-01
  0.196200D+01  0.137977D+00
  0.444600D+00  0.478148D+00
  0.122000D+00  0.501240D+00
   s     1 1.00
  0.122000D+00  0.100000D+01
   p     1 1.00
  0.727000D+00  0.100000D+01
  
 11  0
   s     4 1.00
  0.130100D+02  0.196850D-01
  0.196200D+01  0.137977D+00
  0.444600D+00  0.478148D+00
  0.122000D+00  0.501240D+00
   s     1 1.00
  0.122000D+00  0.100000D+01
   p     1 1.00
  0.727000D+00  0.100000D+01
  
 12  0
   s     4 1.00
  0.130100D+02  0.196850D-01
  0.196200D+01  0.137977D+00
  0.444600D+00  0.478148D+00
  0.122000D+00  0.501240D+00
   s     1 1.00
  0.122000D+00  0.100000D+01
   p     1 1.00
  0.727000D+00  0.100000D+01
  
 13  0
   s     4 1.00
  0.130100D+02  0.196850D-01
  0.196200D+01  0.137977D+00
  0.444600D+00  0.478148D+00
  0.122000D+00  0.501240D+00
   s     1 1.00
  0.122000D+00  0.100000D+01
   p     1 1.00
  0.727000D+00  0.100000D+01
  
 14  0
   s     4 1.00
  0.130100D+02  0.196850D-01
  0.196200D+01  0.137977D+00
  0.444600D+00  0.478148D+00
  0.122000D+00  0.501240D+00
   s     1 1.00
  0.122000D+00  0.100000D+01
   p     1 1.00
  0.727000D+00  0.100000D+01
  
[MO]
 Sym= __1_A__
 Ene=  0.000000000000000E+000
 Spin= Alpha
 Occup=    2.00000000000000     
                     1  6.720899224760088E-005
                     2  0.998374528710760     
                     3  3.064935820905450E-003
                     4  1.710232417102775E-003
                     5  4.788429340173063E-003
                     6  3.404236909462536E-003
                     7  6.359142330315865E-003
                     8  3.917753733312590E-012
                     9 -5.981102389054523E-004
                    10 -5.508772509277344E-004
                    11  3.606072658166565E-012
                    12 -2.312225918939777E-003
                    13 -1.493552427881311E-003
                    14 -7.509523560395157E-012
                    15 -1.340987371809860E-004
                    16 -7.810955902849688E-013
                    17 -1.092300113506367E-012
                    18 -1.865770728227705E-004
                    19 -6.250018747955978E-005
                    20  1.476053054665924E-004
                    21 -1.244846282311614E-012
                    22 -3.789269565122000E-012
                    23 -3.706961140186926E-004
                    24  4.880828207265682E-004
                    25  8.212780181080808E-013
                    26 -1.362674178436503E-005
                    27 -6.655636703686143E-005
                    28 -1.835411621512600E-012
                    29 -4.266523047488558E-013
                    30  3.217564443029215E-005
                    31 -1.504820718101534E-004
                    32 -3.729613308832118E-004
                    33  1.555166360967780E-003
                    34  3.123681659022747E-004
                    35 -4.410023135309880E-004
                    36 -2.872326998792626E-004
                    37 -5.254908430120786E-003
                    38 -3.252201788722246E-012
                    39  4.227563702327966E-004
                    40  5.235768620825118E-004
                    41  1.101272723831139E-011
                    42 -2.001514413653930E-003
                    43  5.446182784005430E-003
                    44 -1.742522589531005E-012
                    45 -1.592906242006589E-005
                    46 -7.138784161107757E-013
                    47  6.665758888011797E-012
                    48 -2.366140283208642E-004
                    49 -1.280710163238899E-005
                    50 -2.734453542136202E-004
                    51  2.028190578207899E-012
                    52 -1.274641360099939E-011
                    53  7.198476029119084E-005
                    54  7.361438348217553E-004
                    55  2.368276686230110E-012
                    56 -1.327369042025990E-005
                    57 -5.379826726688191E-005
                    58 -4.528888247981742E-012
                    59  1.047229743584487E-012
                    60  4.237298056082726E-005
                    61 -1.269748235763479E-004
                    62 -4.537705407477266E-004
                    63 -2.192797265966528E-003
                    64 -8.360490354884132E-005
                    65  1.945946855092773E-003
                    66 -7.095545394466343E-004
                    67  5.466494673203996E-004
                    68  3.669687763214078E-012
                    69  3.693161604065697E-004
                    70  8.407140561904457E-004
                    71 -3.023994030120242E-013
                    72 -1.886687996166944E-003
                    73  8.509201661643374E-004
                    74  7.054379167478622E-013
                    75 -3.856608431973737E-005
                    76  3.540358369585184E-013
                    77 -2.254667226993112E-012
                    78 -7.812021070350082E-005
                    79 -2.481261945165158E-005
                    80 -1.208678565484003E-004
                    81  3.883470527766507E-012
                    82  2.830396626937775E-012
                    83  1.190693373246563E-005
                    84  9.952968431032003E-005
                    85  4.324077166763599E-012
                    86  1.338323329783763E-005
                    87 -5.051462636714165E-005
                    88  1.457446472214572E-012
                    89  3.799910057574537E-012
                    90 -2.657289389040212E-005
                    91 -1.467890276763380E-004
                    92 -1.789898001550954E-004
                    93 -1.270159934396293E-003
                    94  2.035917402305523E-004
                    95 -1.529519321423910E-004
                    96  6.223889794496836E-004
                    97  7.667577617662687E-004
                    98 -1.791002754061343E-011
                    99  3.876389005530965E-004
                   100  3.749283919895317E-004
                   101  2.317253372568567E-011
                   102  4.548676998669801E-004
                   103 -1.604754796319290E-003
                   104  9.594000674476665E-012
                   105  4.222020037913639E-007
                   106  3.199313371032270E-012
                   107 -3.998160504690584E-012
                   108 -8.407380762778350E-005
                   109 -1.882553342490451E-005
                   110  9.330677214113067E-005
                   111 -5.540294885031680E-012
                   112  1.276656953651853E-011
                   113 -1.403988322049580E-004
                   114 -4.544009069097038E-005
                   115  5.720895555156694E-013
                   116 -2.687914285680846E-005
                   117 -2.716799648401425E-005
                   118 -3.459585636019814E-012
                   119 -1.698683878188667E-012
                   120 -1.724229553355831E-005
                   121 -3.113132149905920E-005
                   122 -2.527801982951356E-004
                   123 -4.734833638416441E-004
                   124  1.728077430642706E-004
                   125  2.917125039103842E-004
                   126 -1.290705658046140E-005
                   127 -5.936882735556808E-004
                   128  2.045197399830097E-011
                   129  1.824414055036829E-004
                   130  6.416545419800348E-004
                   131 -1.526164193926843E-011
                   132  5.617201502714290E-004
                   133  2.011895061525589E-003
                   134 -6.996492709887221E-012
                   135  1.487367968386003E-005
                   136  1.252127758292531E-014
                   137  8.601692784822052E-013
                   138  3.905163799612042E-005
                   139  1.969883899570802E-006
                   140  1.786631808198364E-004
                   141 -1.954505133102106E-013
                   142 -5.197270880712509E-012
                   143  3.720236245244228E-004
                   144  2.335155661017640E-004
                   145  2.702690932365302E-012
                   146 -9.433951681475452E-006
                   147 -5.886627820720156E-005
                   148  1.257764261567764E-013
                   149 -1.081341554980124E-013
                   150 -1.394946931650418E-005
                   151 -4.392799052272711E-005
                   152 -1.625913779139162E-004
                   153 -1.796152033316427E-004
                   154  5.766738447935027E-005
                   155  2.690222672359859E-004
                   156 -2.841402783536908E-005
                   157 -5.353826782850793E-004
                   158  5.758790439932163E-012
                   159  3.740520373338917E-005
                   160  6.283931910444270E-005
                   161 -5.750245178548925E-012
                   162  7.879241324700976E-004
                   163 -2.865144889468508E-004
                   164 -1.110860055725943E-011
                   165 -1.420466547126112E-006
                   166 -4.030869095486076E-012
                   167 -8.422425461031466E-013
                   168 -6.212445794693380E-006
                   169  8.801259128719837E-007
                   170  9.131433118877217E-005
                   171  1.097736865602007E-012
                   172  1.001155859575454E-011
                   173  2.575945527040084E-005
                   174 -2.469345149190843E-005
                   175 -1.745077031120963E-012
                   176  9.010921467479382E-007
                   177 -1.067109370340602E-005
                   178  1.117546619876132E-012
                   179  7.152165015885611E-013
                   180 -1.313829051736183E-005
                   181 -1.937170631743428E-005
                   182 -1.647458348379773E-004
                   183 -4.782271568817640E-004
                   184  4.031673836342164E-005
                   185  2.385443368811398E-004
                   186 -4.457380843282972E-005
                   187 -4.744755332619051E-005
                   188 -1.420113123661208E-013
                   189  2.415178144397689E-004
                   190  7.538554753021599E-005
                   191 -3.869343867184791E-012
                   192  1.329461118236986E-003
                   193 -1.932116845006063E-004
                   194  5.139137409577225E-012
                   195  6.105450665667103E-007
                   196 -4.511747415952450E-013
                   197 -1.030305709364141E-012
                   198 -1.237339487125602E-005
                   199  3.077514874327721E-006
                   200 -5.099642936019441E-006
                   201 -3.139415395227829E-012
                   202 -5.915646202793665E-012
                   203 -8.099152924113505E-005
                   204 -1.878099353300059E-004
                   205 -8.808742409507612E-013
                   206 -8.554137413405044E-006
                   207 -4.669118753302806E-006
                   208  2.295799958808994E-012
                   209 -2.041496230324729E-012
                   210  6.710967576032961E-006
                   211 -8.296375442433044E-006
                   212  8.898852675818186E-005
                   213  2.231891218809015E-005
                   214  1.455280983458455E-004
                   215  1.389207414431710E-004
                   216 -2.047291744892226E-012
                   217  1.748895788909385E-003
                   218 -1.710827515658248E-003
                   219 -4.415938582066736E-004
                   220  2.104280186910784E-004
                   221  3.351954350910245E-013
                   222 -4.594813399518655E-004
                   223 -6.907806490605013E-004
                   224 -6.255195721820534E-006
                   225 -6.097990790095911E-005
                   226 -2.497978838347461E-012
                   227 -3.232117610698697E-004
                   228 -4.319634477521503E-004
                   229 -1.405451686334249E-005
                   230 -2.381187253351105E-005
                   231  8.679643050843797E-013
                   232 -1.111817296828412E-004
                   233 -4.548698101218156E-004
                   234  3.737595981746718E-007
                   235  1.191009575915008E-006
                   236  2.350092091390968E-012
                   237 -1.702384296408254E-004
                   238 -4.227406029263845E-004
                   239  3.452283146708088E-006
                   240 -7.900839910752188E-007
                   241 -1.837617403304385E-013
                   242  9.408770708866490E-006
                   243  1.335056407023261E-006
                   244 -6.409297983805992E-008
                   245  2.614088990319475E-005
                   246  5.408788476492041E-012
 Sym= __2_A__
 Ene=  0.000000000000000E+000
 Spin= Alpha
 Occup=    2.00000000000000     
                     1 -4.983897344271962E-005
                     2 -3.150440528473381E-004
                     3  2.590939333356895E-003
                     4  1.462324058510318E-004
                     5  1.421826325411896E-003
                     6 -3.391635025065721E-004
                     7  3.091694036834300E-003
                     8 -4.584324689928830E-012
                     9 -2.881845263573721E-005
                    10 -1.097996099285619E-004
                    11  4.425713031688018E-012
                    12  3.416585510017109E-006
                    13 -4.437445796875453E-004
                    14 -7.368707343959588E-012
                    15  3.835131124158873E-005
                    16  1.969180299300530E-013
                    17  2.059006980977863E-013
                    18 -4.834274013511194E-005
                    19  1.813447738734550E-005
                    20 -1.265985938128797E-004
                    21  2.028137763164310E-013
                    22 -3.857093956385446E-012
                    23  1.781502881088292E-004
                    24 -1.254330049193205E-004
                    25 -1.278220246479379E-012
                    26 -1.744828934369584E-005
                    27  9.322585684254837E-005
                    28  4.807013678746514E-012
                    29 -4.994591160764295E-013
                    30 -5.948888070890351E-005
                    31  1.345398427132810E-004
                    32   1.00100251532792     
                    33  9.324749821444586E-003
                    34  2.706656104455014E-003
                    35 -8.011939391723155E-003
                    36 -7.212255360808529E-006
                    37 -3.394091475071839E-003
                    38  1.350486216443785E-012
                    39 -1.976552759883796E-004
                    40  1.704286082067169E-004
                    41  4.626610999178759E-012
                    42 -1.225281748415947E-004
                    43  4.227176472697026E-003
                    44  1.815434798362028E-012
                    45 -5.635890976199087E-004
                    46 -1.347782669457468E-012
                    47  1.009454948689320E-012
                    48 -2.397235737477210E-004
                    49  4.463011219063998E-005
                    50  5.178647315505497E-004
                    51 -4.854408384828146E-012
                    52 -1.330021111577542E-011
                    53 -6.996290700066078E-004
                    54 -3.576764485417913E-004
                    55  1.153962157701004E-013
                    56  1.270933030856430E-005
                    57  1.061146817172060E-004
                    58 -1.809792972546074E-012
                    59 -4.709579037803573E-013
                    60 -3.531470814672926E-005
                    61  4.033798111473122E-004
                    62  8.641502429378218E-003
                    63 -2.084956857440954E-003
                    64 -2.378081701966543E-004
                    65  2.716484458827244E-003
                    66 -2.537586026672568E-006
                    67  6.438503716954888E-005
                    68 -8.366102473330214E-012
                    69  5.561467412831544E-004
                    70  1.289228645247846E-004
                    71  7.390972712008119E-012
                    72 -2.150761716858701E-003
                    73  2.733162309218794E-004
                    74 -2.591911769542208E-012
                    75  3.389747125216972E-005
                    76 -2.774901190049686E-012
                    77 -2.404073026947450E-012
                    78 -4.400685409985448E-006
                    79  8.182657931177770E-007
                    80 -4.088555195233295E-004
                    81 -4.575635972694135E-013
                    82  1.558760611425424E-011
                    83 -6.178996396667598E-004
                    84 -2.475436986060808E-004
                    85  9.996077049357747E-013
                    86  2.671440419441899E-005
                    87 -5.777023366040911E-005
                    88 -4.171294400247932E-012
                    89  5.028680833137520E-012
                    90  4.389309309262142E-005
                    91  1.530257003927522E-004
                    92  1.020286879405669E-002
                    93 -2.086951105080893E-003
                    94 -3.160975706041346E-004
                    95  3.207582614614048E-003
                    96  5.903149920841286E-005
                    97  2.481644251925514E-005
                    98 -1.796305497736929E-011
                    99 -9.410841008864048E-004
                   100  2.245712810459099E-005
                   101  1.166053491943782E-011
                   102  1.823068450530189E-003
                   103  2.811220105495521E-005
                   104  4.397074628318398E-013
                   105  2.134172713484879E-005
                   106  2.038926270543783E-012
                   107 -4.294135310268338E-012
                   108 -9.994874312958324E-007
                   109  1.272908970311142E-005
                   110 -4.243617334324786E-004
                   111 -2.336383083562027E-012
                   112  5.531614736775124E-012
                   113 -3.877911819828438E-004
                   114  2.724077617694060E-004
                   115  2.699586796893350E-013
                   116 -2.541732398439018E-005
                   117 -6.890958260827933E-005
                   118 -1.026357886521786E-013
                   119  8.125185187933562E-013
                   120 -1.080999910574961E-005
                   121  1.357132215182485E-004
                   122 -1.929100241821126E-004
                   123 -7.115142184139881E-004
                   124  2.241041242585768E-004
                   125 -7.486227531190808E-005
                   126  7.677987847918516E-006
                   127 -3.371537034520477E-004
                   128  6.828931278971312E-012
                   129 -8.976608346150161E-005
                   130  5.794030783610850E-004
                   131 -1.887777726604426E-011
                   132  3.664127024244094E-004
                   133  9.193552453957470E-004
                   134  1.687941809396199E-011
                   135  1.641977855409849E-005
                   136 -6.083946062323652E-013
                   137 -2.467460278222842E-012
                   138  3.008458503020434E-006
                   139  4.406857050323547E-005
                   140  1.330844881760288E-004
                   141 -4.757541813132681E-012
                   142  4.601955915049056E-012
                   143  2.423813799482296E-004
                   144 -1.046440854708695E-004
                   145 -2.746698892978049E-012
                   146  1.027346395092414E-005
                   147 -3.758091965675773E-005
                   148  1.147955829533658E-013
                   149 -2.106613243028933E-012
                   150 -4.788265263189047E-005
                   151  3.789799430113744E-005
                   152 -1.258548936647498E-004
                   153 -6.991230321862562E-004
                   154  2.316888928284224E-004
                   155 -3.147247748395387E-005
                   156 -2.824868498860282E-005
                   157 -3.316588368616800E-004
                   158 -4.262826871496601E-012
                   159  1.342479593353804E-004
                   160  5.375747259005233E-004