[Molden Format]
[Atoms] AU
  N     1    7    -0.0799068400   -4.3361656000    0.0000000000        
  C     2    6     0.0331449500   -1.8333115900    0.0000000000        
  C     3    6    -2.3043615000   -0.4326654700    0.0000000000        
  C     4    6     2.3469444500   -0.3980806600    0.0000000000        
  C     5    6    -2.2833202800    2.1482203200    0.0000000000        
  C     6    6     2.2987900500    2.1817579500    0.0000000000        
  C     7    6    -0.0023937800    3.4855781900    0.0000000000        
  H     8    1    -2.7058890300   -5.8348795700    0.0000000000        
  H     9    1     1.6877938200   -5.1396842800    0.0000000000        
  H    10    1    -4.0342277100   -1.4788416000    0.0000000000        
  H    11    1     4.1099952300   -1.4006324100    0.0000000000        
  H    12    1    -4.0366905400    3.1694994900    0.0000000000        
  H    13    1     4.0385966600    3.2259657800    0.0000000000        
  H    14    1    -0.0154739100    5.5129679200    0.0000000000        
[5D]
[7F]
[GTO]
  1  0
   s    12 1.00
  0.114200D+05  0.172695D-04
  0.171200D+04  0.134411D-03
  0.389300D+03  0.694561D-03
  0.110000D+03  0.278531D-02
  0.355700D+02  0.863457D-02
  0.125400D+02  0.199805D-01
  0.464400D+01  0.262908D-01
  0.129300D+01 -0.243845D-01
  0.511800D+00 -0.924934D-01
  0.178700D+00 -0.339683D+00
  0.246240D-01  0.345111D+00
  0.112530D-01  0.752750D+00
   s    10 1.00
  0.114200D+05  0.523000D-03
  0.171200D+04  0.404500D-02
  0.389300D+03  0.207750D-01
  0.110000D+03  0.807269D-01
  0.355700D+02  0.233074D+00
  0.125400D+02  0.433501D+00
  0.464400D+01  0.347472D+00
  0.129300D+01  0.412620D-01
  0.511800D+00 -0.850799D-02
  0.178700D+00  0.238400D-02
   s    10 1.00
  0.114200D+05 -0.115000D-03
  0.171200D+04 -0.895000D-03
  0.389300D+03 -0.462400D-02
  0.110000D+03 -0.185280D-01
  0.355700D+02 -0.573390D-01
  0.125400D+02 -0.132076D+00
  0.464400D+01 -0.172510D+00
  0.129300D+01  0.151814D+00
  0.511800D+00  0.599944D+00
  0.178700D+00  0.387462D+00
   s     1 1.00
  0.129300D+01  0.100000D+01
   s     1 1.00
  0.178700D+00  0.100000D+01
   p     5 1.00
  0.266300D+02  0.146700D-01
  0.594800D+01  0.917640D-01
  0.174200D+01  0.298683D+00
  0.555000D+00  0.498487D+00
  0.172500D+00  0.337023D+00
   p     1 1.00
  0.174200D+01  0.100000D+01
   p     1 1.00
  0.555000D+00  0.100000D+01
   d     1 1.00
  0.165400D+01  0.100000D+01
   d     1 1.00
  0.469000D+00  0.100000D+01
   f     1 1.00
  0.109300D+01  0.100000D+01
  
  2  0
   s    10 1.00
  0.823600D+04  0.531000D-03
  0.123500D+04  0.410800D-02
  0.280800D+03  0.210870D-01
  0.792700D+02  0.818530D-01
  0.255900D+02  0.234817D+00
  0.899700D+01  0.434401D+00
  0.331900D+01  0.346129D+00
  0.905900D+00  0.393780D-01
  0.364300D+00 -0.898300D-02
  0.128500D+00  0.238500D-02
   s    10 1.00
  0.823600D+04 -0.113000D-03
  0.123500D+04 -0.878000D-03
  0.280800D+03 -0.454000D-02
  0.792700D+02 -0.181330D-01
  0.255900D+02 -0.557600D-01
  0.899700D+01 -0.126895D+00
  0.331900D+01 -0.170352D+00
  0.905900D+00  0.140382D+00
  0.364300D+00  0.598684D+00
  0.128500D+00  0.395389D+00
   s     1 1.00
  0.905900D+00  0.100000D+01
   s     1 1.00
  0.364300D+00  0.100000D+01
   p     5 1.00
  0.187100D+02  0.140310D-01
  0.413300D+01  0.868660D-01
  0.120000D+01  0.290216D+00
  0.382700D+00  0.501008D+00
  0.120900D+00  0.343406D+00
   p     1 1.00
  0.382700D+00  0.100000D+01
   p     1 1.00
  0.120900D+00  0.100000D+01
   d     1 1.00
  0.109700D+01  0.100000D+01
   d     1 1.00
  0.318000D+00  0.100000D+01
   f     1 1.00
  0.761000D+00  0.100000D+01
  
  3  0
   s    10 1.00
  0.823600D+04  0.531000D-03
  0.123500D+04  0.410800D-02
  0.280800D+03  0.210870D-01
  0.792700D+02  0.818530D-01
  0.255900D+02  0.234817D+00
  0.899700D+01  0.434401D+00
  0.331900D+01  0.346129D+00
  0.905900D+00  0.393780D-01
  0.364300D+00 -0.898300D-02
  0.128500D+00  0.238500D-02
   s    10 1.00
  0.823600D+04 -0.113000D-03
  0.123500D+04 -0.878000D-03
  0.280800D+03 -0.454000D-02
  0.792700D+02 -0.181330D-01
  0.255900D+02 -0.557600D-01
  0.899700D+01 -0.126895D+00
  0.331900D+01 -0.170352D+00
  0.905900D+00  0.140382D+00
  0.364300D+00  0.598684D+00
  0.128500D+00  0.395389D+00
   s     1 1.00
  0.905900D+00  0.100000D+01
   s     1 1.00
  0.364300D+00  0.100000D+01
   p     5 1.00
  0.187100D+02  0.140310D-01
  0.413300D+01  0.868660D-01
  0.120000D+01  0.290216D+00
  0.382700D+00  0.501008D+00
  0.120900D+00  0.343406D+00
   p     1 1.00
  0.382700D+00  0.100000D+01
   p     1 1.00
  0.120900D+00  0.100000D+01
   d     1 1.00
  0.109700D+01  0.100000D+01
   d     1 1.00
  0.318000D+00  0.100000D+01
   f     1 1.00
  0.761000D+00  0.100000D+01
  
  4  0
   s    10 1.00
  0.823600D+04  0.531000D-03
  0.123500D+04  0.410800D-02
  0.280800D+03  0.210870D-01
  0.792700D+02  0.818530D-01
  0.255900D+02  0.234817D+00
  0.899700D+01  0.434401D+00
  0.331900D+01  0.346129D+00
  0.905900D+00  0.393780D-01
  0.364300D+00 -0.898300D-02
  0.128500D+00  0.238500D-02
   s    10 1.00
  0.823600D+04 -0.113000D-03
  0.123500D+04 -0.878000D-03
  0.280800D+03 -0.454000D-02
  0.792700D+02 -0.181330D-01
  0.255900D+02 -0.557600D-01
  0.899700D+01 -0.126895D+00
  0.331900D+01 -0.170352D+00
  0.905900D+00  0.140382D+00
  0.364300D+00  0.598684D+00
  0.128500D+00  0.395389D+00
   s     1 1.00
  0.905900D+00  0.100000D+01
   s     1 1.00
  0.364300D+00  0.100000D+01
   p     5 1.00
  0.187100D+02  0.140310D-01
  0.413300D+01  0.868660D-01
  0.120000D+01  0.290216D+00
  0.382700D+00  0.501008D+00
  0.120900D+00  0.343406D+00
   p     1 1.00
  0.382700D+00  0.100000D+01
   p     1 1.00
  0.120900D+00  0.100000D+01
   d     1 1.00
  0.109700D+01  0.100000D+01
   d     1 1.00
  0.318000D+00  0.100000D+01
   f     1 1.00
  0.761000D+00  0.100000D+01
  
  5  0
   s    10 1.00
  0.823600D+04  0.531000D-03
  0.123500D+04  0.410800D-02
  0.280800D+03  0.210870D-01
  0.792700D+02  0.818530D-01
  0.255900D+02  0.234817D+00
  0.899700D+01  0.434401D+00
  0.331900D+01  0.346129D+00
  0.905900D+00  0.393780D-01
  0.364300D+00 -0.898300D-02
  0.128500D+00  0.238500D-02
   s    10 1.00
  0.823600D+04 -0.113000D-03
  0.123500D+04 -0.878000D-03
  0.280800D+03 -0.454000D-02
  0.792700D+02 -0.181330D-01
  0.255900D+02 -0.557600D-01
  0.899700D+01 -0.126895D+00
  0.331900D+01 -0.170352D+00
  0.905900D+00  0.140382D+00
  0.364300D+00  0.598684D+00
  0.128500D+00  0.395389D+00
   s     1 1.00
  0.905900D+00  0.100000D+01
   s     1 1.00
  0.364300D+00  0.100000D+01
   p     5 1.00
  0.187100D+02  0.140310D-01
  0.413300D+01  0.868660D-01
  0.120000D+01  0.290216D+00
  0.382700D+00  0.501008D+00
  0.120900D+00  0.343406D+00
   p     1 1.00
  0.382700D+00  0.100000D+01
   p     1 1.00
  0.120900D+00  0.100000D+01
   d     1 1.00
  0.109700D+01  0.100000D+01
   d     1 1.00
  0.318000D+00  0.100000D+01
   f     1 1.00
  0.761000D+00  0.100000D+01
  
  6  0
   s    10 1.00
  0.823600D+04  0.531000D-03
  0.123500D+04  0.410800D-02
  0.280800D+03  0.210870D-01
  0.792700D+02  0.818530D-01
  0.255900D+02  0.234817D+00
  0.899700D+01  0.434401D+00
  0.331900D+01  0.346129D+00
  0.905900D+00  0.393780D-01
  0.364300D+00 -0.898300D-02
  0.128500D+00  0.238500D-02
   s    10 1.00
  0.823600D+04 -0.113000D-03
  0.123500D+04 -0.878000D-03
  0.280800D+03 -0.454000D-02
  0.792700D+02 -0.181330D-01
  0.255900D+02 -0.557600D-01
  0.899700D+01 -0.126895D+00
  0.331900D+01 -0.170352D+00
  0.905900D+00  0.140382D+00
  0.364300D+00  0.598684D+00
  0.128500D+00  0.395389D+00
   s     1 1.00
  0.905900D+00  0.100000D+01
   s     1 1.00
  0.364300D+00  0.100000D+01
   p     5 1.00
  0.187100D+02  0.140310D-01
  0.413300D+01  0.868660D-01
  0.120000D+01  0.290216D+00
  0.382700D+00  0.501008D+00
  0.120900D+00  0.343406D+00
   p     1 1.00
  0.382700D+00  0.100000D+01
   p     1 1.00
  0.120900D+00  0.100000D+01
   d     1 1.00
  0.109700D+01  0.100000D+01
   d     1 1.00
  0.318000D+00  0.100000D+01
   f     1 1.00
  0.761000D+00  0.100000D+01
  
  7  0
   s    10 1.00
  0.823600D+04  0.531000D-03
  0.123500D+04  0.410800D-02
  0.280800D+03  0.210870D-01
  0.792700D+02  0.818530D-01
  0.255900D+02  0.234817D+00
  0.899700D+01  0.434401D+00
  0.331900D+01  0.346129D+00
  0.905900D+00  0.393780D-01
  0.364300D+00 -0.898300D-02
  0.128500D+00  0.238500D-02
   s    10 1.00
  0.823600D+04 -0.113000D-03
  0.123500D+04 -0.878000D-03
  0.280800D+03 -0.454000D-02
  0.792700D+02 -0.181330D-01
  0.255900D+02 -0.557600D-01
  0.899700D+01 -0.126895D+00
  0.331900D+01 -0.170352D+00
  0.905900D+00  0.140382D+00
  0.364300D+00  0.598684D+00
  0.128500D+00  0.395389D+00
   s     1 1.00
  0.905900D+00  0.100000D+01
   s     1 1.00
  0.364300D+00  0.100000D+01
   p     5 1.00
  0.187100D+02  0.140310D-01
  0.413300D+01  0.868660D-01
  0.120000D+01  0.290216D+00
  0.382700D+00  0.501008D+00
  0.120900D+00  0.343406D+00
   p     1 1.00
  0.382700D+00  0.100000D+01
   p     1 1.00
  0.120900D+00  0.100000D+01
   d     1 1.00
  0.109700D+01  0.100000D+01
   d     1 1.00
  0.318000D+00  0.100000D+01
   f     1 1.00
  0.761000D+00  0.100000D+01
  
  8  0
   s     4 1.00
  0.130100D+02  0.196850D-01
  0.196200D+01  0.137977D+00
  0.444600D+00  0.478148D+00
  0.122000D+00  0.501240D+00
   s     1 1.00
  0.122000D+00  0.100000D+01
   p     1 1.00
  0.727000D+00  0.100000D+01
  
  9  0
   s     4 1.00
  0.130100D+02  0.196850D-01
  0.196200D+01  0.137977D+00
  0.444600D+00  0.478148D+00
  0.122000D+00  0.501240D+00
   s     1 1.00
  0.122000D+00  0.100000D+01
   p     1 1.00
  0.727000D+00  0.100000D+01
  
 10  0
   s     4 1.00
  0.130100D+02  0.196850D-01
  0.196200D+01  0.137977D+00
  0.444600D+00  0.478148D+00
  0.122000D+00  0.501240D+00
   s     1 1.00
  0.122000D+00  0.100000D+01
   p     1 1.00
  0.727000D+00  0.100000D+01
  
 11  0
   s     4 1.00
  0.130100D+02  0.196850D-01
  0.196200D+01  0.137977D+00
  0.444600D+00  0.478148D+00
  0.122000D+00  0.501240D+00
   s     1 1.00
  0.122000D+00  0.100000D+01
   p     1 1.00
  0.727000D+00  0.100000D+01
  
 12  0
   s     4 1.00
  0.130100D+02  0.196850D-01
  0.196200D+01  0.137977D+00
  0.444600D+00  0.478148D+00
  0.122000D+00  0.501240D+00
   s     1 1.00
  0.122000D+00  0.100000D+01
   p     1 1.00
  0.727000D+00  0.100000D+01
  
 13  0
   s     4 1.00
  0.130100D+02  0.196850D-01
  0.196200D+01  0.137977D+00
  0.444600D+00  0.478148D+00
  0.122000D+00  0.501240D+00
   s     1 1.00
  0.122000D+00  0.100000D+01
   p     1 1.00
  0.727000D+00  0.100000D+01
  
 14  0
   s     4 1.00
  0.130100D+02  0.196850D-01
  0.196200D+01  0.137977D+00
  0.444600D+00  0.478148D+00
  0.122000D+00  0.501240D+00
   s     1 1.00
  0.122000D+00  0.100000D+01
   p     1 1.00
  0.727000D+00  0.100000D+01
  
[MO]
 Sym= __1_a__
 Ene=  0.000000000000000E+000
 Spin= Alpha
 Occup=    2.00000000000000     
                     1  6.720899225673790E-005
                     2  0.998374528710721     
                     3  3.064935820944500E-003
                     4  1.710232417096160E-003
                     5  4.788429340104660E-003
                     6  3.404236909868730E-003
                     7  6.359142330488950E-003
                     8  3.917753732521540E-012
                     9 -5.981102388983820E-004
                    10 -5.508772509227400E-004
                    11  3.606072658490150E-012
                    12 -2.312225918950740E-003
                    13 -1.493552427875730E-003
                    14 -7.509523560201760E-012
                    15 -1.340987371879735E-004
                    16 -7.810955903202220E-013
                    17 -1.092300113526760E-012
                    18 -1.865770728231924E-004
                    19 -6.250018745767700E-005
                    20  1.476053054440559E-004
                    21 -1.244846282407550E-012
                    22 -3.789269565104250E-012
                    23 -3.706961140478400E-004
                    24  4.880828208089360E-004
                    25  8.212780181371049E-013
                    26 -1.362674179053775E-005
                    27 -6.655636704605923E-005
                    28 -1.835411621588058E-012
                    29 -4.266523047713510E-013
                    30  3.217564444587478E-005
                    31 -1.504820718120596E-004
                    32 -3.729613338321460E-004
                    33  1.555166362853170E-003
                    34  3.123681658880740E-004
                    35 -4.410023137125450E-004
                    36 -2.872326970286820E-004
                    37 -5.254908429839230E-003
                    38 -3.252201788597190E-012
                    39  4.227563701798010E-004
                    40  5.235768621305870E-004
                    41  1.101272723808540E-011
                    42 -2.001514414218370E-003
                    43  5.446182784192810E-003
                    44 -1.742522589391670E-012
                    45 -1.592906244279983E-005
                    46 -7.138784161228940E-013
                    47  6.665758888051920E-012
                    48 -2.366140282625860E-004
                    49 -1.280710156220070E-005
                    50 -2.734453542896939E-004
                    51  2.028190578346500E-012
                    52 -1.274641360107160E-011
                    53  7.198476030147100E-005
                    54  7.361438349810500E-004
                    55  2.368276686228051E-012
                    56 -1.327369044656698E-005
                    57 -5.379826727170241E-005
                    58 -4.528888248058100E-012
                    59  1.047229743497430E-012
                    60  4.237298056390898E-005
                    61 -1.269748235495283E-004
                    62 -4.537705406050760E-004
                    63 -2.192797265231770E-003
                    64 -8.360490354056531E-005
                    65  1.945946855082160E-003
                    66 -7.095545416070250E-004
                    67  5.466494666654650E-004
                    68  3.669687762981040E-012
                    69  3.693161606765920E-004
                    70  8.407140563758840E-004
                    71 -3.023994026796360E-013
                    72 -1.886687996210780E-003
                    73  8.509201662732500E-004
                    74  7.054379168192170E-013
                    75 -3.856608433219051E-005
                    76  3.540358370517580E-013
                    77 -2.254667227118240E-012
                    78 -7.812021067346700E-005
                    79 -2.481261937455000E-005
                    80 -1.208678565342290E-004
                    81  3.883470527569990E-012
                    82  2.830396627189740E-012
                    83  1.190693366948396E-005
                    84  9.952968420603639E-005
                    85  4.324077166803008E-012
                    86  1.338323330688196E-005
                    87 -5.051462636978721E-005
                    88  1.457446472107624E-012
                    89  3.799910057614810E-012
                    90 -2.657289389566731E-005
                    91 -1.467890276815347E-004
                    92 -1.789898002231640E-004
                    93 -1.270159933697250E-003
                    94  2.035917402274540E-004
                    95 -1.529519321994190E-004
                    96  6.223889779589650E-004
                    97  7.667577583238280E-004
                    98 -1.791002754118390E-011
                    99  3.876389006627970E-004
                   100  3.749283922821480E-004
                   101  2.317253372609690E-011
                   102  4.548677001775210E-004
                   103 -1.604754795593090E-003
                   104  9.594000674501560E-012
                   105  4.222019952557978E-007
                   106  3.199313371114690E-012
                   107 -3.998160504740520E-012
                   108 -8.407380754403740E-005
                   109 -1.882553335636300E-005
                   110  9.330677212333995E-005
                   111 -5.540294885031580E-012
                   112  1.276656953676750E-011
                   113 -1.403988322190210E-004
                   114 -4.544009058294760E-005
                   115  5.720895554956535E-013
                   116 -2.687914284249059E-005
                   117 -2.716799645427880E-005
                   118 -3.459585635985660E-012
                   119 -1.698683878239150E-012
                   120 -1.724229554825146E-005
                   121 -3.113132150744129E-005
                   122 -2.527801984874670E-004
                   123 -4.734833637765960E-004
                   124  1.728077430837070E-004
                   125  2.917125038405880E-004
                   126 -1.290705612227750E-005
                   127 -5.936882731692790E-004
                   128  2.045197399802370E-011
                   129  1.824414055253400E-004
                   130  6.416545420374800E-004
                   131 -1.526164193945420E-011
                   132  5.617201504560160E-004
                   133  2.011895061693970E-003
                   134 -6.996492709936030E-012
                   135  1.487367968584486E-005
                   136  1.252127772447420E-014
                   137  8.601692784336370E-013
                   138  3.905163800744580E-005
                   139  1.969883945209940E-006
                   140  1.786631808142808E-004
                   141 -1.954505134845030E-013
                   142 -5.197270880488110E-012
                   143  3.720236246074960E-004
                   144  2.335155661051590E-004
                   145  2.702690932285981E-012
                   146 -9.433951682904821E-006
                   147 -5.886627821085468E-005
                   148  1.257764261725144E-013
                   149 -1.081341555727100E-013
                   150 -1.394946932613183E-005
                   151 -4.392799052412410E-005
                   152 -1.625913777501270E-004
                   153 -1.796152045050610E-004
                   154  5.766738451381060E-005
                   155  2.690222672639050E-004
                   156 -2.841402742067050E-005
                   157 -5.353826758643960E-004
                   158  5.758790440455390E-012
                   159  3.740520366875840E-005
                   160  6.283931894404290E-005
                   161 -5.750245178793500E-012
                   162  7.879241325877320E-004
                   163 -2.865144893302240E-004
                   164 -1.110860055684410E-011
                   165 -1.420466524887641E-006
                   166 -4.030869095505120E-012
                   167 -8.422425460603180E-013
                   168 -6.212445713688420E-006
                   169  8.801259518539360E-007
                   170  9.131433122946798E-005
                   171  1.097736865615050E-012
                   172  1.001155859597990E-011
                   173  2.575945533343440E-005
                   174 -2.469345147599590E-005
                   175 -1.745077031092483E-012
                   176  9.010921454636828E-007
                   177 -1.067109372086131E-005
                   178  1.117546619827020E-012
                   179  7.152165014890510E-013
                   180 -1.313829052401306E-005
                   181 -1.937170634114093E-005
                   182 -1.647458348628660E-004
                   183 -4.782271565225010E-004
                   184  4.031673836079240E-005
                   185  2.385443368720620E-004
                   186 -4.457380871437030E-005
                   187 -4.744755381443880E-005
                   188 -1.420113124529980E-013
                   189  2.415178144609600E-004
                   190  7.538554760831861E-005
                   191 -3.869343867676780E-012
                   192  1.329461118405750E-003
                   193 -1.932116846024550E-004
                   194  5.139137409306860E-012
                   195  6.105450636160921E-007
                   196 -4.511747415018490E-013
                   197 -1.030305709366270E-012
                   198 -1.237339482717042E-005
                   199  3.077514894033210E-006
                   200 -5.099642964149681E-006
                   201 -3.139415395371140E-012
                   202 -5.915646202989250E-012
                   203 -8.099152920842420E-005
                   204 -1.878099353205180E-004
                   205 -8.808742409073869E-013
                   206 -8.554137414327894E-006
                   207 -4.669118752287785E-006
                   208  2.295799958827100E-012
                   209 -2.041496230318010E-012
                   210  6.710967571767361E-006
                   211 -8.296375454924742E-006
                   212  8.898852688298950E-005
                   213  2.231891231205230E-005
                   214  1.455280983413670E-004
                   215  1.389207414492300E-004
                   216 -2.047291744850310E-012
                   217  1.748895789070720E-003
                   218 -1.710827515830050E-003
                   219 -4.415938582232360E-004
                   220  2.104280187165750E-004
                   221  3.351954350703790E-013
                   222 -4.594813371845580E-004
                   223 -6.907806500777910E-004
                   224 -6.255195591261370E-006
                   225 -6.097990781054900E-005
                   226 -2.497978838397920E-012
                   227 -3.232117605405300E-004
                   228 -4.319634480827160E-004
                   229 -1.405451692426700E-005
                   230 -2.381187255721180E-005
                   231  8.679643052093880E-013
                   232 -1.111817300526890E-004
                   233 -4.548698100702560E-004
                   234  3.737595897230650E-007
                   235  1.191009583426510E-006
                   236  2.350092091402750E-012
                   237 -1.702384283426540E-004
                   238 -4.227406032436790E-004
                   239  3.452283083921050E-006
                   240 -7.900839954707560E-007
                   241 -1.837617403445340E-013
                   242  9.408770169723590E-006
                   243  1.335056487705960E-006
                   244 -6.409297988112921E-008
                   245  2.614088992878930E-005
                   246  5.408788476559100E-012
 Sym= __2_a__
 Ene=  0.000000000000000E+000
 Spin= Alpha
 Occup=    2.00000000000000     
                     1 -4.983897340360260E-005
                     2 -3.150440499955770E-004
                     3  2.590939333036540E-003
                     4  1.462324058615470E-004
                     5  1.421826325834800E-003
                     6 -3.391635023049640E-004
                     7  3.091694036828810E-003
                     8 -4.584324692976690E-012
                     9 -2.881845264058710E-005
                    10 -1.097996099616870E-004
                    11  4.425713033352490E-012
                    12  3.416585500516210E-006
                    13 -4.437445796989550E-004
                    14 -7.368707343314870E-012
                    15  3.835131124998575E-005
                    16  1.969180301299710E-013
                    17  2.059006980271660E-013
                    18 -4.834274013375580E-005
                    19  1.813447739785710E-005
                    20 -1.265985938625598E-004
                    21  2.028137758527120E-013
                    22 -3.857093955614510E-012
                    23  1.781502881780954E-004
                    24 -1.254330048866120E-004
                    25 -1.278220245947413E-012
                    26 -1.744828935029053E-005
                    27  9.322585683072076E-005
                    28  4.807013678351700E-012
                    29 -4.994591169049420E-013
                    30 -5.948888070243506E-005
                    31  1.345398427319858E-004
                    32   1.00100251533367     
                    33  9.324749819527731E-003
                    34  2.706656104742390E-003
                    35 -8.011939393252260E-003
                    36 -7.212253644323830E-006
                    37 -3.394091476428140E-003
                    38  1.350486214749200E-012
                    39 -1.976552761131090E-004
                    40  1.704286079438820E-004
                    41  4.626611001699940E-012
                    42 -1.225281751333390E-004
                    43  4.227176473105660E-003
                    44  1.815434797277660E-012
                    45 -5.635890975929534E-004
                    46 -1.347782668938940E-012
                    47  1.009454950683980E-012
                    48 -2.397235737612800E-004
                    49  4.463011223072910E-005
                    50  5.178647318930295E-004
                    51 -4.854408383812360E-012
                    52 -1.330021111792920E-011
                    53 -6.996290704674180E-004
                    54 -3.576764484722960E-004
                    55  1.153962160815439E-013
                    56  1.270933028914602E-005
                    57  1.061146817179597E-004
                    58 -1.809792972491546E-012
                    59 -4.709579037074690E-013
                    60 -3.531470814274245E-005
                    61  4.033798111689350E-004
                    62  8.641502186973999E-003
                    63 -2.084956859894850E-003
                    64 -2.378081710039380E-004
                    65  2.716484460945800E-003
                    66 -2.537588770798490E-006
                    67  6.438503810948221E-005
                    68 -8.366102473589110E-012
                    69  5.561467418312470E-004
                    70  1.289228643645970E-004
                    71  7.390972712545780E-012
                    72 -2.150761716356930E-003
                    73  2.733162303855160E-004
                    74 -2.591911768399130E-012
                    75  3.389747136039686E-005
                    76 -2.774901190845460E-012
                    77 -2.404073026837000E-012
                    78 -4.400685400125600E-006
                    79  8.182658904080840E-007
                    80 -4.088555196257238E-004
                    81 -4.575635966136350E-013
                    82  1.558760611524940E-011
                    83 -6.178996398845720E-004
                    84 -2.475436989198320E-004
                    85  9.996077053554529E-013
                    86  2.671440418130767E-005
                    87 -5.777023367084106E-005
                    88 -4.171294401028720E-012
                    89  5.028680832909810E-012
                    90  4.389309309284150E-005
                    91  1.530257004869195E-004
                    92  1.020286850354030E-002
                    93 -2.086951107820520E-003
                    94 -3.160975715711000E-004
                    95  3.207582617188960E-003
                    96  5.903149987368960E-005
                    97  2.481644178782110E-005
                    98 -1.796305497850770E-011
                    99 -9.410841012745061E-004
                   100  2.245712797080630E-005
                   101  1.166053492227460E-011
                   102  1.823068450273160E-003
                   103  2.811220086270130E-005
                   104  4.397074694524660E-013
                   105  2.134172725983667E-005
                   106  2.038926270008710E-012
                   107 -4.294135310767920E-012
                   108 -9.994873808746821E-007
                   109  1.272908968502580E-005
                   110 -4.243617335883740E-004
                   111 -2.336383084011600E-012
                   112  5.531614746366870E-012
                   113 -3.877911821705640E-004
                   114  2.724077621714580E-004
                   115  2.699586789380493E-013
                   116 -2.541732395270270E-005
                   117 -6.890958259599287E-005
                   118 -1.026357901806890E-013
                   119  8.125185193612570E-013
                   120 -1.080999911369625E-005
                   121  1.357132216176358E-004
                   122 -1.929100430921960E-004
                   123 -7.115142173494999E-004
                   124  2.241041242768620E-004
                   125 -7.486227625263470E-005
                   126  7.677988267999111E-006
                   127 -3.371537037299250E-004
                   128  6.828931278673710E-012
                   129 -8.976608352519390E-005
                   130  5.794030785053850E-004
                   131 -1.887777726679200E-011
                   132  3.664127027045240E-004
                   133  9.193552449413910E-004
                   134  1.687941809653790E-011
                   135  1.641977854518915E-005
                   136 -6.083946061434640E-013
                   137 -2.467460276674890E-012
                   138  3.008458490912880E-006
                   139  4.406857056017380E-005
                   140  1.330844882582011E-004
                   141 -4.757541811120700E-012
                   142  4.601955916311410E-012
                   143  2.423813799735460E-004
                   144 -1.046440856201570E-004
                   145 -2.746698893145251E-012
                   146  1.027346395546758E-005
                   147 -3.758091962693021E-005
                   148  1.147955839991844E-013
                   149 -2.106613242264370E-012
                   150 -4.788265265083350E-005
                   151  3.789799432372535E-005
                   152 -1.258548936647830E-004
                   153 -6.991230317265660E-004
                   154  2.316888929315390E-004
                   155 -3.147247863273910E-005
                   156 -2.824868489297850E-005
                   157 -3.316588359073260E-004
                   158 -4.262826869523100E-012
                   159  1.342479593885000E-004
                   160  5.375747259327570E-004