[Molden Format]
[Atoms] AU
  N     1    7     0.0000000000   -4.2907334100    0.0000000000        
  C     2    6     0.0000000000   -1.7772236300    0.0000000000        
  C     3    6    -2.3389203600   -0.4111016300    0.0000000000        
  C     4    6     2.3389203600   -0.4111016300    0.0000000000        
  C     5    6    -2.2998668500    2.1639215300    0.0000000000        
  C     6    6     2.2998668500    2.1639215300    0.0000000000        
  C     7    6     0.0000000000    3.4755251800    0.0000000000        
  H     8    1    -2.5732809600   -5.8782317900    0.0000000000        
  H     9    1     2.4124509000   -5.7790131500    0.0000000000        
  H    10    1    -4.0745407300   -1.4447408500    0.0000000000        
  H    11    1     4.0745407300   -1.4447408500    0.0000000000        
  H    12    1    -4.0420632100    3.1963889500    0.0000000000        
  H    13    1     4.0420632100    3.1963889500    0.0000000000        
  H    14    1     0.0000000000    5.5020335600    0.0000000000        
[5D]
[7F]
[GTO]
  1  0
   s    12 1.00
  0.114200D+05  0.172695D-04
  0.171200D+04  0.134411D-03
  0.389300D+03  0.694561D-03
  0.110000D+03  0.278531D-02
  0.355700D+02  0.863457D-02
  0.125400D+02  0.199805D-01
  0.464400D+01  0.262908D-01
  0.129300D+01 -0.243845D-01
  0.511800D+00 -0.924934D-01
  0.178700D+00 -0.339683D+00
  0.246240D-01  0.345111D+00
  0.112530D-01  0.752750D+00
   s    10 1.00
  0.114200D+05  0.523000D-03
  0.171200D+04  0.404500D-02
  0.389300D+03  0.207750D-01
  0.110000D+03  0.807269D-01
  0.355700D+02  0.233074D+00
  0.125400D+02  0.433501D+00
  0.464400D+01  0.347472D+00
  0.129300D+01  0.412620D-01
  0.511800D+00 -0.850799D-02
  0.178700D+00  0.238400D-02
   s    10 1.00
  0.114200D+05 -0.115000D-03
  0.171200D+04 -0.895000D-03
  0.389300D+03 -0.462400D-02
  0.110000D+03 -0.185280D-01
  0.355700D+02 -0.573390D-01
  0.125400D+02 -0.132076D+00
  0.464400D+01 -0.172510D+00
  0.129300D+01  0.151814D+00
  0.511800D+00  0.599944D+00
  0.178700D+00  0.387462D+00
   s     1 1.00
  0.129300D+01  0.100000D+01
   s     1 1.00
  0.178700D+00  0.100000D+01
   p     5 1.00
  0.266300D+02  0.146700D-01
  0.594800D+01  0.917640D-01
  0.174200D+01  0.298683D+00
  0.555000D+00  0.498487D+00
  0.172500D+00  0.337023D+00
   p     1 1.00
  0.174200D+01  0.100000D+01
   p     1 1.00
  0.555000D+00  0.100000D+01
   d     1 1.00
  0.165400D+01  0.100000D+01
   d     1 1.00
  0.469000D+00  0.100000D+01
   f     1 1.00
  0.109300D+01  0.100000D+01
  
  2  0
   s    10 1.00
  0.823600D+04  0.531000D-03
  0.123500D+04  0.410800D-02
  0.280800D+03  0.210870D-01
  0.792700D+02  0.818530D-01
  0.255900D+02  0.234817D+00
  0.899700D+01  0.434401D+00
  0.331900D+01  0.346129D+00
  0.905900D+00  0.393780D-01
  0.364300D+00 -0.898300D-02
  0.128500D+00  0.238500D-02
   s    10 1.00
  0.823600D+04 -0.113000D-03
  0.123500D+04 -0.878000D-03
  0.280800D+03 -0.454000D-02
  0.792700D+02 -0.181330D-01
  0.255900D+02 -0.557600D-01
  0.899700D+01 -0.126895D+00
  0.331900D+01 -0.170352D+00
  0.905900D+00  0.140382D+00
  0.364300D+00  0.598684D+00
  0.128500D+00  0.395389D+00
   s     1 1.00
  0.905900D+00  0.100000D+01
   s     1 1.00
  0.364300D+00  0.100000D+01
   p     5 1.00
  0.187100D+02  0.140310D-01
  0.413300D+01  0.868660D-01
  0.120000D+01  0.290216D+00
  0.382700D+00  0.501008D+00
  0.120900D+00  0.343406D+00
   p     1 1.00
  0.382700D+00  0.100000D+01
   p     1 1.00
  0.120900D+00  0.100000D+01
   d     1 1.00
  0.109700D+01  0.100000D+01
   d     1 1.00
  0.318000D+00  0.100000D+01
   f     1 1.00
  0.761000D+00  0.100000D+01
  
  3  0
   s    10 1.00
  0.823600D+04  0.531000D-03
  0.123500D+04  0.410800D-02
  0.280800D+03  0.210870D-01
  0.792700D+02  0.818530D-01
  0.255900D+02  0.234817D+00
  0.899700D+01  0.434401D+00
  0.331900D+01  0.346129D+00
  0.905900D+00  0.393780D-01
  0.364300D+00 -0.898300D-02
  0.128500D+00  0.238500D-02
   s    10 1.00
  0.823600D+04 -0.113000D-03
  0.123500D+04 -0.878000D-03
  0.280800D+03 -0.454000D-02
  0.792700D+02 -0.181330D-01
  0.255900D+02 -0.557600D-01
  0.899700D+01 -0.126895D+00
  0.331900D+01 -0.170352D+00
  0.905900D+00  0.140382D+00
  0.364300D+00  0.598684D+00
  0.128500D+00  0.395389D+00
   s     1 1.00
  0.905900D+00  0.100000D+01
   s     1 1.00
  0.364300D+00  0.100000D+01
   p     5 1.00
  0.187100D+02  0.140310D-01
  0.413300D+01  0.868660D-01
  0.120000D+01  0.290216D+00
  0.382700D+00  0.501008D+00
  0.120900D+00  0.343406D+00
   p     1 1.00
  0.382700D+00  0.100000D+01
   p     1 1.00
  0.120900D+00  0.100000D+01
   d     1 1.00
  0.109700D+01  0.100000D+01
   d     1 1.00
  0.318000D+00  0.100000D+01
   f     1 1.00
  0.761000D+00  0.100000D+01
  
  4  0
   s    10 1.00
  0.823600D+04  0.531000D-03
  0.123500D+04  0.410800D-02
  0.280800D+03  0.210870D-01
  0.792700D+02  0.818530D-01
  0.255900D+02  0.234817D+00
  0.899700D+01  0.434401D+00
  0.331900D+01  0.346129D+00
  0.905900D+00  0.393780D-01
  0.364300D+00 -0.898300D-02
  0.128500D+00  0.238500D-02
   s    10 1.00
  0.823600D+04 -0.113000D-03
  0.123500D+04 -0.878000D-03
  0.280800D+03 -0.454000D-02
  0.792700D+02 -0.181330D-01
  0.255900D+02 -0.557600D-01
  0.899700D+01 -0.126895D+00
  0.331900D+01 -0.170352D+00
  0.905900D+00  0.140382D+00
  0.364300D+00  0.598684D+00
  0.128500D+00  0.395389D+00
   s     1 1.00
  0.905900D+00  0.100000D+01
   s     1 1.00
  0.364300D+00  0.100000D+01
   p     5 1.00
  0.187100D+02  0.140310D-01
  0.413300D+01  0.868660D-01
  0.120000D+01  0.290216D+00
  0.382700D+00  0.501008D+00
  0.120900D+00  0.343406D+00
   p     1 1.00
  0.382700D+00  0.100000D+01
   p     1 1.00
  0.120900D+00  0.100000D+01
   d     1 1.00
  0.109700D+01  0.100000D+01
   d     1 1.00
  0.318000D+00  0.100000D+01
   f     1 1.00
  0.761000D+00  0.100000D+01
  
  5  0
   s    10 1.00
  0.823600D+04  0.531000D-03
  0.123500D+04  0.410800D-02
  0.280800D+03  0.210870D-01
  0.792700D+02  0.818530D-01
  0.255900D+02  0.234817D+00
  0.899700D+01  0.434401D+00
  0.331900D+01  0.346129D+00
  0.905900D+00  0.393780D-01
  0.364300D+00 -0.898300D-02
  0.128500D+00  0.238500D-02
   s    10 1.00
  0.823600D+04 -0.113000D-03
  0.123500D+04 -0.878000D-03
  0.280800D+03 -0.454000D-02
  0.792700D+02 -0.181330D-01
  0.255900D+02 -0.557600D-01
  0.899700D+01 -0.126895D+00
  0.331900D+01 -0.170352D+00
  0.905900D+00  0.140382D+00
  0.364300D+00  0.598684D+00
  0.128500D+00  0.395389D+00
   s     1 1.00
  0.905900D+00  0.100000D+01
   s     1 1.00
  0.364300D+00  0.100000D+01
   p     5 1.00
  0.187100D+02  0.140310D-01
  0.413300D+01  0.868660D-01
  0.120000D+01  0.290216D+00
  0.382700D+00  0.501008D+00
  0.120900D+00  0.343406D+00
   p     1 1.00
  0.382700D+00  0.100000D+01
   p     1 1.00
  0.120900D+00  0.100000D+01
   d     1 1.00
  0.109700D+01  0.100000D+01
   d     1 1.00
  0.318000D+00  0.100000D+01
   f     1 1.00
  0.761000D+00  0.100000D+01
  
  6  0
   s    10 1.00
  0.823600D+04  0.531000D-03
  0.123500D+04  0.410800D-02
  0.280800D+03  0.210870D-01
  0.792700D+02  0.818530D-01
  0.255900D+02  0.234817D+00
  0.899700D+01  0.434401D+00
  0.331900D+01  0.346129D+00
  0.905900D+00  0.393780D-01
  0.364300D+00 -0.898300D-02
  0.128500D+00  0.238500D-02
   s    10 1.00
  0.823600D+04 -0.113000D-03
  0.123500D+04 -0.878000D-03
  0.280800D+03 -0.454000D-02
  0.792700D+02 -0.181330D-01
  0.255900D+02 -0.557600D-01
  0.899700D+01 -0.126895D+00
  0.331900D+01 -0.170352D+00
  0.905900D+00  0.140382D+00
  0.364300D+00  0.598684D+00
  0.128500D+00  0.395389D+00
   s     1 1.00
  0.905900D+00  0.100000D+01
   s     1 1.00
  0.364300D+00  0.100000D+01
   p     5 1.00
  0.187100D+02  0.140310D-01
  0.413300D+01  0.868660D-01
  0.120000D+01  0.290216D+00
  0.382700D+00  0.501008D+00
  0.120900D+00  0.343406D+00
   p     1 1.00
  0.382700D+00  0.100000D+01
   p     1 1.00
  0.120900D+00  0.100000D+01
   d     1 1.00
  0.109700D+01  0.100000D+01
   d     1 1.00
  0.318000D+00  0.100000D+01
   f     1 1.00
  0.761000D+00  0.100000D+01
  
  7  0
   s    10 1.00
  0.823600D+04  0.531000D-03
  0.123500D+04  0.410800D-02
  0.280800D+03  0.210870D-01
  0.792700D+02  0.818530D-01
  0.255900D+02  0.234817D+00
  0.899700D+01  0.434401D+00
  0.331900D+01  0.346129D+00
  0.905900D+00  0.393780D-01
  0.364300D+00 -0.898300D-02
  0.128500D+00  0.238500D-02
   s    10 1.00
  0.823600D+04 -0.113000D-03
  0.123500D+04 -0.878000D-03
  0.280800D+03 -0.454000D-02
  0.792700D+02 -0.181330D-01
  0.255900D+02 -0.557600D-01
  0.899700D+01 -0.126895D+00
  0.331900D+01 -0.170352D+00
  0.905900D+00  0.140382D+00
  0.364300D+00  0.598684D+00
  0.128500D+00  0.395389D+00
   s     1 1.00
  0.905900D+00  0.100000D+01
   s     1 1.00
  0.364300D+00  0.100000D+01
   p     5 1.00
  0.187100D+02  0.140310D-01
  0.413300D+01  0.868660D-01
  0.120000D+01  0.290216D+00
  0.382700D+00  0.501008D+00
  0.120900D+00  0.343406D+00
   p     1 1.00
  0.382700D+00  0.100000D+01
   p     1 1.00
  0.120900D+00  0.100000D+01
   d     1 1.00
  0.109700D+01  0.100000D+01
   d     1 1.00
  0.318000D+00  0.100000D+01
   f     1 1.00
  0.761000D+00  0.100000D+01
  
  8  0
   s     4 1.00
  0.130100D+02  0.196850D-01
  0.196200D+01  0.137977D+00
  0.444600D+00  0.478148D+00
  0.122000D+00  0.501240D+00
   s     1 1.00
  0.122000D+00  0.100000D+01
   p     1 1.00
  0.727000D+00  0.100000D+01
  
  9  0
   s     4 1.00
  0.130100D+02  0.196850D-01
  0.196200D+01  0.137977D+00
  0.444600D+00  0.478148D+00
  0.122000D+00  0.501240D+00
   s     1 1.00
  0.122000D+00  0.100000D+01
   p     1 1.00
  0.727000D+00  0.100000D+01
  
 10  0
   s     4 1.00
  0.130100D+02  0.196850D-01
  0.196200D+01  0.137977D+00
  0.444600D+00  0.478148D+00
  0.122000D+00  0.501240D+00
   s     1 1.00
  0.122000D+00  0.100000D+01
   p     1 1.00
  0.727000D+00  0.100000D+01
  
 11  0
   s     4 1.00
  0.130100D+02  0.196850D-01
  0.196200D+01  0.137977D+00
  0.444600D+00  0.478148D+00
  0.122000D+00  0.501240D+00
   s     1 1.00
  0.122000D+00  0.100000D+01
   p     1 1.00
  0.727000D+00  0.100000D+01
  
 12  0
   s     4 1.00
  0.130100D+02  0.196850D-01
  0.196200D+01  0.137977D+00
  0.444600D+00  0.478148D+00
  0.122000D+00  0.501240D+00
   s     1 1.00
  0.122000D+00  0.100000D+01
   p     1 1.00
  0.727000D+00  0.100000D+01
  
 13  0
   s     4 1.00
  0.130100D+02  0.196850D-01
  0.196200D+01  0.137977D+00
  0.444600D+00  0.478148D+00
  0.122000D+00  0.501240D+00
   s     1 1.00
  0.122000D+00  0.100000D+01
   p     1 1.00
  0.727000D+00  0.100000D+01
  
 14  0
   s     4 1.00
  0.130100D+02  0.196850D-01
  0.196200D+01  0.137977D+00
  0.444600D+00  0.478148D+00
  0.122000D+00  0.501240D+00
   s     1 1.00
  0.122000D+00  0.100000D+01
   p     1 1.00
  0.727000D+00  0.100000D+01
  
[MO]
 Sym= __1_A__
 Ene=   1.00000000000000     
 Spin= Alpha
 Occup=    1.00000000000000     
                     1  3.585825286633180E-005
                     2  0.998798415898340     
                     3  3.503961389539259E-004
                     4  1.149918340599125E-003
                     5  5.465540401412030E-003
                     6  2.094155232542356E-003
                     7  6.818664180938137E-003
                     8  0.000000000000000E+000
                     9 -5.060987340544573E-004
                    10 -7.598227917709154E-004
                    11  0.000000000000000E+000
                    12 -1.381231287358710E-003
                    13 -2.534583650102751E-003
                    14  0.000000000000000E+000
                    15 -2.160205306636366E-005
                    16  0.000000000000000E+000
                    17  0.000000000000000E+000
                    18 -2.569852486964910E-004
                    19  5.585263813177163E-006
                    20  1.089566754156574E-004
                    21  0.000000000000000E+000
                    22  0.000000000000000E+000
                    23 -2.269539403782602E-004
                    24  1.793320398485015E-004
                    25  0.000000000000000E+000
                    26 -8.441656293707433E-006
                    27 -4.150483351799167E-005
                    28  0.000000000000000E+000
                    29  0.000000000000000E+000
                    30  1.268233002730406E-005
                    31 -1.261730740999819E-004
                    32 -2.880256200676926E-004
                    33  8.339846868343205E-004
                    34  3.027216065627869E-004
                    35 -3.634924804799660E-004
                    36 -9.991432368875857E-005
                    37 -3.544408859175455E-003
                    38  0.000000000000000E+000
                    39  3.522084147677804E-004
                    40  5.054832298371497E-005
                    41  0.000000000000000E+000
                    42 -1.559568661512440E-003
                    43  5.664059100203153E-003
                    44  0.000000000000000E+000
                    45 -1.517035205589654E-005
                    46  0.000000000000000E+000
                    47  0.000000000000000E+000
                    48 -1.856997709669362E-004
                    49 -9.255700020629852E-007
                    50 -2.249268902640973E-004
                    51  0.000000000000000E+000
                    52  0.000000000000000E+000
                    53 -1.005593600515399E-004
                    54  3.683537031325554E-004
                    55  0.000000000000000E+000
                    56 -1.016257976591852E-005
                    57 -4.944734020804926E-005
                    58  0.000000000000000E+000
                    59  0.000000000000000E+000
                    60  4.406347290010656E-006
                    61 -1.134532400211012E-004
                    62 -4.968834650731853E-004
                    63 -2.054212506835558E-003
                    64 -3.436806753800223E-005
                    65  1.823406711917844E-003
                    66 -4.901903133950220E-004
                    67  3.248601925899533E-004
                    68  0.000000000000000E+000
                    69  2.766730170860031E-004
                    70  6.459656365172604E-004
                    71  0.000000000000000E+000
                    72 -1.731315600625321E-003
                    73  3.517653431490992E-004
                    74  0.000000000000000E+000
                    75 -4.002718234443350E-005
                    76  0.000000000000000E+000
                    77  0.000000000000000E+000
                    78 -6.377135101673447E-005
                    79 -1.990681137550054E-005
                    80 -1.016938937593561E-004
                    81  0.000000000000000E+000
                    82  0.000000000000000E+000
                    83 -6.322663035414600E-006
                    84 -3.825618937449143E-006
                    85  0.000000000000000E+000
                    86  5.670506755495885E-006
                    87 -4.088020765765737E-005
                    88  0.000000000000000E+000
                    89  0.000000000000000E+000
                    90 -1.126394786261914E-005
                    91 -1.337233752520268E-004
                    92 -2.330699179200919E-004
                    93 -1.133452596717553E-003
                    94  1.436364133516848E-004
                    95  3.227905440335505E-004
                    96  4.035624615492411E-004
                    97  3.999471678869177E-004
                    98  0.000000000000000E+000
                    99  1.954139384562073E-004
                   100  3.009481626582087E-004
                   101  0.000000000000000E+000
                   102  9.048047731075918E-004
                   103 -1.095650614039848E-003
                   104  0.000000000000000E+000
                   105 -2.063738352963589E-005
                   106  0.000000000000000E+000
                   107  0.000000000000000E+000
                   108 -5.021804259513650E-005
                   109 -5.539150461938121E-006
                   110  1.008903660040214E-004
                   111  0.000000000000000E+000
                   112  0.000000000000000E+000
                   113 -8.044792773036775E-005
                   114  9.315541747176195E-006
                   115  0.000000000000000E+000
                   116 -2.139527166658400E-005
                   117 -3.531783060524292E-005
                   118  0.000000000000000E+000
                   119  0.000000000000000E+000
                   120  1.387561317256712E-005
                   121 -5.426206478534701E-005
                   122 -3.075993611415078E-004
                   123 -7.668337242943796E-004
                   124  1.461430559774378E-004
                   125  5.538658378753702E-004
                   126 -2.380821081348066E-005
                   127 -3.969645596772008E-004
                   128  0.000000000000000E+000
                   129  2.140452304694533E-004
                   130  4.984129825347296E-004
                   131  0.000000000000000E+000
                   132  1.722462022185725E-004
                   133  1.703186165958991E-003
                   134  0.000000000000000E+000
                   135  4.877522430091882E-006
                   136  0.000000000000000E+000
                   137  0.000000000000000E+000
                   138  3.532031603930642E-005
                   139 -4.129553481834422E-006
                   140  1.891683603701343E-004
                   141  0.000000000000000E+000
                   142  0.000000000000000E+000
                   143  2.999935550705900E-004
                   144  1.915005298432483E-004
                   145  0.000000000000000E+000
                   146 -9.464697853598706E-006
                   147 -5.123639587346196E-005
                   148  0.000000000000000E+000
                   149  0.000000000000000E+000
                   150 -9.695529434733428E-006
                   151 -4.043043145558679E-005
                   152 -2.456347747317259E-004
                   153 -5.860992597751520E-004
                   154  5.812407291776131E-005
                   155  5.634193252296056E-004
                   156 -9.688341349109209E-006
                   157 -3.369969323029310E-004
                   158  0.000000000000000E+000
                   159 -4.035717244142946E-005
                   160  1.130116295160813E-004
                   161  0.000000000000000E+000
                   162  5.182343494248779E-004
                   163  1.436633300257611E-004
                   164  0.000000000000000E+000
                   165 -2.438220855633974E-006
                   166  0.000000000000000E+000
                   167  0.000000000000000E+000
                   168  3.583996858768218E-006
                   169  8.048047039611377E-006
                   170  8.746972121972749E-005
                   171  0.000000000000000E+000
                   172  0.000000000000000E+000
                   173  6.510359672992828E-005
                   174 -5.322687981062141E-005
                   175  0.000000000000000E+000
                   176  6.543288789126563E-006
                   177 -1.749231147053605E-005
                   178  0.000000000000000E+000
                   179  0.000000000000000E+000
                   180 -1.718039175977139E-005
                   181 -1.593108734782884E-005
                   182 -2.034780286548058E-004
                   183 -6.065546209066255E-004
                   184  6.171900262075552E-005
                   185  3.232074132227983E-004
                   186 -2.627763409682990E-005
                   187 -4.214909604113221E-005
                   188  0.000000000000000E+000
                   189  1.378638657594098E-004
                   190  7.234078376758820E-005
                   191  0.000000000000000E+000
                   192  8.728158014277233E-004
                   193 -1.963534096567068E-004
                   194  0.000000000000000E+000
                   195 -1.731995817400371E-006
                   196  0.000000000000000E+000
                   197  0.000000000000000E+000
                   198 -1.204950533909602E-005
                   199  4.276457848297489E-006
                   200  3.174015812379526E-005
                   201  0.000000000000000E+000
                   202  0.000000000000000E+000
                   203 -8.758745772359232E-005
                   204 -1.259662825005532E-004
                   205  0.000000000000000E+000
                   206 -4.505651116736756E-006
                   207 -7.007384417012869E-006
                   208  0.000000000000000E+000
                   209  0.000000000000000E+000
                   210  7.126536997926775E-006
                   211  6.523548036924131E-007
                   212 -1.167282942805521E-004
                   213  6.678655212766156E-005
                   214  1.318663434070712E-004
                   215  1.057104268107698E-004
                   216  0.000000000000000E+000
                   217 -5.319348098111822E-004
                   218 -1.370304510380071E-004
                   219 -1.394591554456012E-004
                   220  6.863406166611176E-005
                   221  0.000000000000000E+000
                   222 -2.832858916030047E-004
                   223 -7.365423633036191E-004
                   224  7.060602883888407E-006
                   225 -5.908851210612285E-005
                   226  0.000000000000000E+000
                   227 -1.572830446517286E-004
                   228 -6.533100581538100E-004
                   229 -1.120566564748023E-005
                   230 -3.002686439004676E-005
                   231  0.000000000000000E+000
                   232 -2.564343345898125E-005
                   233 -5.608018900886424E-004
                   234  5.808639546001105E-006
                   235 -5.693372326386212E-006
                   236  0.000000000000000E+000
                   237 -8.602116680344020E-005
                   238 -4.207238437205131E-004
                   239  4.499665212669799E-006
                   240  1.299584637167186E-006
                   241  0.000000000000000E+000
                   242  7.566079721920849E-006
                   243 -2.545699749793874E-005
                   244  6.488232093475851E-007
                   245  2.274339215769308E-005
                   246  0.000000000000000E+000
 Sym= __2_A__
 Ene=   2.00000000000000     
 Spin= Alpha
 Occup=    1.00000000000000     
                     1 -5.896806762657733E-005
                     2 -3.622591834292708E-004
                     3  3.120394380315538E-003
                     4  1.750309899324234E-004
                     5  1.330975232697834E-003
                     6 -3.365741553938889E-005
                     7  2.815125365234515E-003
                     8  0.000000000000000E+000
                     9 -8.009328887346807E-006
                    10 -1.385125080752945E-004
                    11  0.000000000000000E+000
                    12  7.276656816802179E-006
                    13 -3.379368679495055E-004
                    14  0.000000000000000E+000
                    15  3.030796730672469E-005
                    16  0.000000000000000E+000
                    17  0.000000000000000E+000
                    18 -4.525017872313098E-005
                    19  6.474650575364575E-006
                    20 -1.059185382127727E-004
                    21  0.000000000000000E+000
                    22  0.000000000000000E+000
                    23  8.186106006391275E-005
                    24  2.682889917208324E-006
                    25  0.000000000000000E+000
                    26 -2.276165310580152E-006
                    27  8.613169640104803E-005
                    28  0.000000000000000E+000
                    29  0.000000000000000E+000
                    30 -4.395790507706681E-007
                    31  1.582810159311392E-004
                    32   1.00100221486276     
                    33  9.232898031815600E-003
                    34  2.769653659121130E-003
                    35 -8.155100041535879E-003
                    36 -5.862973720509876E-005
                    37 -3.634781019495007E-003
                    38  0.000000000000000E+000
                    39  9.752692418563759E-005
                    40  5.983777413957512E-004
                    41  0.000000000000000E+000
                    42  1.721552176016788E-005
                    43  4.241562323105079E-003
                    44  0.000000000000000E+000
                    45 -5.729932814502201E-004
                    46  0.000000000000000E+000
                    47  0.000000000000000E+000
                    48 -2.018390478267878E-004
                    49  3.067420195252664E-006
                    50  5.542949150871848E-004
                    51  0.000000000000000E+000
                    52  0.000000000000000E+000
                    53 -8.216040071821680E-004
                    54  2.678591299044167E-005
                    55  0.000000000000000E+000
                    56 -4.387885630411095E-006
                    57  9.213042656146403E-005
                    58  0.000000000000000E+000
                    59  0.000000000000000E+000
                    60  4.225554885908863E-006
                    61  3.932845590528296E-004
                    62  9.449505566091466E-003
                    63 -2.074087338127046E-003
                    64 -2.922005049900760E-004
                    65  3.042760698549787E-003
                    66 -2.074220552244783E-005
                    67  1.112243293739397E-004
                    68  0.000000000000000E+000
                    69  7.086395440457466E-004
                    70  3.481348994045339E-005
                    71  0.000000000000000E+000
                    72 -2.038321376072373E-003
                    73  7.003592401250860E-005
                    74  0.000000000000000E+000
                    75  2.852393270589283E-005
                    76  0.000000000000000E+000
                    77  0.000000000000000E+000
                    78 -2.906684123914618E-006
                    79  4.609836575210365E-006
                    80 -4.154096893930110E-004
                    81  0.000000000000000E+000
                    82  0.000000000000000E+000
                    83 -5.891179095944112E-004
                    84 -3.636621870526852E-004
                    85  0.000000000000000E+000
                    86  3.199338587127816E-005
                    87 -5.928645992257121E-005
                    88  0.000000000000000E+000
                    89  0.000000000000000E+000
                    90  4.934140893804641E-005
                    91  1.386677607829573E-004
                    92  9.566290160293565E-003
                    93 -2.046574606591996E-003
                    94 -2.784670631019749E-004
                    95  2.989224891175062E-003
                    96 -6.839627886240099E-006
                    97  8.349979202537234E-005
                    98  0.000000000000000E+000
                    99 -6.574912847437734E-004
                   100  7.372675186734439E-005
                   101  0.000000000000000E+000
                   102  2.045080144647262E-003
                   103  7.597700617150323E-005
                   104  0.000000000000000E+000
                   105  3.104013937375315E-005
                   106  0.000000000000000E+000
                   107  0.000000000000000E+000
                   108 -4.807005792739684E-006
                   109 -6.871972912558602E-006
                   110 -4.108599072834064E-004
                   111  0.000000000000000E+000
                   112  0.000000000000000E+000
                   113 -6.060097825591548E-004
                   114  3.476054407691508E-004
                   115  0.000000000000000E+000
                   116 -3.300152510221513E-005
                   117 -6.016744721556652E-005
                   118  0.000000000000000E+000
                   119  0.000000000000000E+000
                   120 -4.902353001501900E-005
                   121  1.382079529289447E-004
                   122 -1.538057757626572E-004
                   123 -6.757708390365562E-004
                   124  2.301004633696772E-004
                   125 -1.296374264541430E-004
                   126  2.294572946241977E-007
                   127 -3.448019680297189E-004
                   128  0.000000000000000E+000
                   129 -6.235152091677342E-005
                   130  5.506250295554353E-004
                   131  0.000000000000000E+000
                   132  3.195541925249152E-004
                   133  7.455716306618997E-004
                   134  0.000000000000000E+000
                   135  1.999562305034150E-005
                   136  0.000000000000000E+000
                   137  0.000000000000000E+000
                   138  4.140475985206216E-006
                   139  5.312673216807763E-005
                   140  1.370910212080354E-004
                   141  0.000000000000000E+000
                   142  0.000000000000000E+000
                   143  2.479303484636300E-004
                   144 -1.871971113279965E-004
                   145  0.000000000000000E+000
                   146  6.857045992889484E-006
                   147 -3.358383511427901E-005
                   148  0.000000000000000E+000
                   149  0.000000000000000E+000
                   150 -4.629428967910917E-005
                   151  2.707686787357953E-005
                   152 -1.573644235975716E-004
                   153 -6.822478268500114E-004
                   154  2.312566879848760E-004
                   155 -1.400475374415605E-004
                   156  2.497271461354931E-006
                   157 -3.383708646854845E-004
                   158  0.000000000000000E+000
                   159  5.598583895167129E-005
                   160  5.644979790418202E-004