[Molden Format]
[Atoms] AU
  N     1    7     0.0000000000   -4.2907334100    0.0000000000        
  C     2    6     0.0000000000   -1.7772236300    0.0000000000        
  C     3    6    -2.3389203600   -0.4111016300    0.0000000000        
  C     4    6     2.3389203600   -0.4111016300    0.0000000000        
  C     5    6    -2.2998668500    2.1639215300    0.0000000000        
  C     6    6     2.2998668500    2.1639215300    0.0000000000        
  C     7    6     0.0000000000    3.4755251800    0.0000000000        
  H     8    1    -8.0415030200   -9.2516658500    0.0000000000        
  H     9    1     1.6528040300   -5.3103747800    0.0000000000        
  H    10    1    -4.0745407300   -1.4447408500    0.0000000000        
  H    11    1     4.0745407300   -1.4447408500    0.0000000000        
  H    12    1    -4.0420632100    3.1963889500    0.0000000000        
  H    13    1     4.0420632100    3.1963889500    0.0000000000        
  H    14    1     0.0000000000    5.5020335600    0.0000000000        
[5D]
[7F]
[GTO]
  1  0
   s    12 1.00
  0.114200D+05  0.172695D-04
  0.171200D+04  0.134411D-03
  0.389300D+03  0.694561D-03
  0.110000D+03  0.278531D-02
  0.355700D+02  0.863457D-02
  0.125400D+02  0.199805D-01
  0.464400D+01  0.262908D-01
  0.129300D+01 -0.243845D-01
  0.511800D+00 -0.924934D-01
  0.178700D+00 -0.339683D+00
  0.246240D-01  0.345111D+00
  0.112530D-01  0.752750D+00
   s    10 1.00
  0.114200D+05  0.523000D-03
  0.171200D+04  0.404500D-02
  0.389300D+03  0.207750D-01
  0.110000D+03  0.807269D-01
  0.355700D+02  0.233074D+00
  0.125400D+02  0.433501D+00
  0.464400D+01  0.347472D+00
  0.129300D+01  0.412620D-01
  0.511800D+00 -0.850799D-02
  0.178700D+00  0.238400D-02
   s    10 1.00
  0.114200D+05 -0.115000D-03
  0.171200D+04 -0.895000D-03
  0.389300D+03 -0.462400D-02
  0.110000D+03 -0.185280D-01
  0.355700D+02 -0.573390D-01
  0.125400D+02 -0.132076D+00
  0.464400D+01 -0.172510D+00
  0.129300D+01  0.151814D+00
  0.511800D+00  0.599944D+00
  0.178700D+00  0.387462D+00
   s     1 1.00
  0.129300D+01  0.100000D+01
   s     1 1.00
  0.178700D+00  0.100000D+01
   p     5 1.00
  0.266300D+02  0.146700D-01
  0.594800D+01  0.917640D-01
  0.174200D+01  0.298683D+00
  0.555000D+00  0.498487D+00
  0.172500D+00  0.337023D+00
   p     1 1.00
  0.174200D+01  0.100000D+01
   p     1 1.00
  0.555000D+00  0.100000D+01
   d     1 1.00
  0.165400D+01  0.100000D+01
   d     1 1.00
  0.469000D+00  0.100000D+01
   f     1 1.00
  0.109300D+01  0.100000D+01
  
  2  0
   s    10 1.00
  0.823600D+04  0.531000D-03
  0.123500D+04  0.410800D-02
  0.280800D+03  0.210870D-01
  0.792700D+02  0.818530D-01
  0.255900D+02  0.234817D+00
  0.899700D+01  0.434401D+00
  0.331900D+01  0.346129D+00
  0.905900D+00  0.393780D-01
  0.364300D+00 -0.898300D-02
  0.128500D+00  0.238500D-02
   s    10 1.00
  0.823600D+04 -0.113000D-03
  0.123500D+04 -0.878000D-03
  0.280800D+03 -0.454000D-02
  0.792700D+02 -0.181330D-01
  0.255900D+02 -0.557600D-01
  0.899700D+01 -0.126895D+00
  0.331900D+01 -0.170352D+00
  0.905900D+00  0.140382D+00
  0.364300D+00  0.598684D+00
  0.128500D+00  0.395389D+00
   s     1 1.00
  0.905900D+00  0.100000D+01
   s     1 1.00
  0.364300D+00  0.100000D+01
   p     5 1.00
  0.187100D+02  0.140310D-01
  0.413300D+01  0.868660D-01
  0.120000D+01  0.290216D+00
  0.382700D+00  0.501008D+00
  0.120900D+00  0.343406D+00
   p     1 1.00
  0.382700D+00  0.100000D+01
   p     1 1.00
  0.120900D+00  0.100000D+01
   d     1 1.00
  0.109700D+01  0.100000D+01
   d     1 1.00
  0.318000D+00  0.100000D+01
   f     1 1.00
  0.761000D+00  0.100000D+01
  
  3  0
   s    10 1.00
  0.823600D+04  0.531000D-03
  0.123500D+04  0.410800D-02
  0.280800D+03  0.210870D-01
  0.792700D+02  0.818530D-01
  0.255900D+02  0.234817D+00
  0.899700D+01  0.434401D+00
  0.331900D+01  0.346129D+00
  0.905900D+00  0.393780D-01
  0.364300D+00 -0.898300D-02
  0.128500D+00  0.238500D-02
   s    10 1.00
  0.823600D+04 -0.113000D-03
  0.123500D+04 -0.878000D-03
  0.280800D+03 -0.454000D-02
  0.792700D+02 -0.181330D-01
  0.255900D+02 -0.557600D-01
  0.899700D+01 -0.126895D+00
  0.331900D+01 -0.170352D+00
  0.905900D+00  0.140382D+00
  0.364300D+00  0.598684D+00
  0.128500D+00  0.395389D+00
   s     1 1.00
  0.905900D+00  0.100000D+01
   s     1 1.00
  0.364300D+00  0.100000D+01
   p     5 1.00
  0.187100D+02  0.140310D-01
  0.413300D+01  0.868660D-01
  0.120000D+01  0.290216D+00
  0.382700D+00  0.501008D+00
  0.120900D+00  0.343406D+00
   p     1 1.00
  0.382700D+00  0.100000D+01
   p     1 1.00
  0.120900D+00  0.100000D+01
   d     1 1.00
  0.109700D+01  0.100000D+01
   d     1 1.00
  0.318000D+00  0.100000D+01
   f     1 1.00
  0.761000D+00  0.100000D+01
  
  4  0
   s    10 1.00
  0.823600D+04  0.531000D-03
  0.123500D+04  0.410800D-02
  0.280800D+03  0.210870D-01
  0.792700D+02  0.818530D-01
  0.255900D+02  0.234817D+00
  0.899700D+01  0.434401D+00
  0.331900D+01  0.346129D+00
  0.905900D+00  0.393780D-01
  0.364300D+00 -0.898300D-02
  0.128500D+00  0.238500D-02
   s    10 1.00
  0.823600D+04 -0.113000D-03
  0.123500D+04 -0.878000D-03
  0.280800D+03 -0.454000D-02
  0.792700D+02 -0.181330D-01
  0.255900D+02 -0.557600D-01
  0.899700D+01 -0.126895D+00
  0.331900D+01 -0.170352D+00
  0.905900D+00  0.140382D+00
  0.364300D+00  0.598684D+00
  0.128500D+00  0.395389D+00
   s     1 1.00
  0.905900D+00  0.100000D+01
   s     1 1.00
  0.364300D+00  0.100000D+01
   p     5 1.00
  0.187100D+02  0.140310D-01
  0.413300D+01  0.868660D-01
  0.120000D+01  0.290216D+00
  0.382700D+00  0.501008D+00
  0.120900D+00  0.343406D+00
   p     1 1.00
  0.382700D+00  0.100000D+01
   p     1 1.00
  0.120900D+00  0.100000D+01
   d     1 1.00
  0.109700D+01  0.100000D+01
   d     1 1.00
  0.318000D+00  0.100000D+01
   f     1 1.00
  0.761000D+00  0.100000D+01
  
  5  0
   s    10 1.00
  0.823600D+04  0.531000D-03
  0.123500D+04  0.410800D-02
  0.280800D+03  0.210870D-01
  0.792700D+02  0.818530D-01
  0.255900D+02  0.234817D+00
  0.899700D+01  0.434401D+00
  0.331900D+01  0.346129D+00
  0.905900D+00  0.393780D-01
  0.364300D+00 -0.898300D-02
  0.128500D+00  0.238500D-02
   s    10 1.00
  0.823600D+04 -0.113000D-03
  0.123500D+04 -0.878000D-03
  0.280800D+03 -0.454000D-02
  0.792700D+02 -0.181330D-01
  0.255900D+02 -0.557600D-01
  0.899700D+01 -0.126895D+00
  0.331900D+01 -0.170352D+00
  0.905900D+00  0.140382D+00
  0.364300D+00  0.598684D+00
  0.128500D+00  0.395389D+00
   s     1 1.00
  0.905900D+00  0.100000D+01
   s     1 1.00
  0.364300D+00  0.100000D+01
   p     5 1.00
  0.187100D+02  0.140310D-01
  0.413300D+01  0.868660D-01
  0.120000D+01  0.290216D+00
  0.382700D+00  0.501008D+00
  0.120900D+00  0.343406D+00
   p     1 1.00
  0.382700D+00  0.100000D+01
   p     1 1.00
  0.120900D+00  0.100000D+01
   d     1 1.00
  0.109700D+01  0.100000D+01
   d     1 1.00
  0.318000D+00  0.100000D+01
   f     1 1.00
  0.761000D+00  0.100000D+01
  
  6  0
   s    10 1.00
  0.823600D+04  0.531000D-03
  0.123500D+04  0.410800D-02
  0.280800D+03  0.210870D-01
  0.792700D+02  0.818530D-01
  0.255900D+02  0.234817D+00
  0.899700D+01  0.434401D+00
  0.331900D+01  0.346129D+00
  0.905900D+00  0.393780D-01
  0.364300D+00 -0.898300D-02
  0.128500D+00  0.238500D-02
   s    10 1.00
  0.823600D+04 -0.113000D-03
  0.123500D+04 -0.878000D-03
  0.280800D+03 -0.454000D-02
  0.792700D+02 -0.181330D-01
  0.255900D+02 -0.557600D-01
  0.899700D+01 -0.126895D+00
  0.331900D+01 -0.170352D+00
  0.905900D+00  0.140382D+00
  0.364300D+00  0.598684D+00
  0.128500D+00  0.395389D+00
   s     1 1.00
  0.905900D+00  0.100000D+01
   s     1 1.00
  0.364300D+00  0.100000D+01
   p     5 1.00
  0.187100D+02  0.140310D-01
  0.413300D+01  0.868660D-01
  0.120000D+01  0.290216D+00
  0.382700D+00  0.501008D+00
  0.120900D+00  0.343406D+00
   p     1 1.00
  0.382700D+00  0.100000D+01
   p     1 1.00
  0.120900D+00  0.100000D+01
   d     1 1.00
  0.109700D+01  0.100000D+01
   d     1 1.00
  0.318000D+00  0.100000D+01
   f     1 1.00
  0.761000D+00  0.100000D+01
  
  7  0
   s    10 1.00
  0.823600D+04  0.531000D-03
  0.123500D+04  0.410800D-02
  0.280800D+03  0.210870D-01
  0.792700D+02  0.818530D-01
  0.255900D+02  0.234817D+00
  0.899700D+01  0.434401D+00
  0.331900D+01  0.346129D+00
  0.905900D+00  0.393780D-01
  0.364300D+00 -0.898300D-02
  0.128500D+00  0.238500D-02
   s    10 1.00
  0.823600D+04 -0.113000D-03
  0.123500D+04 -0.878000D-03
  0.280800D+03 -0.454000D-02
  0.792700D+02 -0.181330D-01
  0.255900D+02 -0.557600D-01
  0.899700D+01 -0.126895D+00
  0.331900D+01 -0.170352D+00
  0.905900D+00  0.140382D+00
  0.364300D+00  0.598684D+00
  0.128500D+00  0.395389D+00
   s     1 1.00
  0.905900D+00  0.100000D+01
   s     1 1.00
  0.364300D+00  0.100000D+01
   p     5 1.00
  0.187100D+02  0.140310D-01
  0.413300D+01  0.868660D-01
  0.120000D+01  0.290216D+00
  0.382700D+00  0.501008D+00
  0.120900D+00  0.343406D+00
   p     1 1.00
  0.382700D+00  0.100000D+01
   p     1 1.00
  0.120900D+00  0.100000D+01
   d     1 1.00
  0.109700D+01  0.100000D+01
   d     1 1.00
  0.318000D+00  0.100000D+01
   f     1 1.00
  0.761000D+00  0.100000D+01
  
  8  0
   s     4 1.00
  0.130100D+02  0.196850D-01
  0.196200D+01  0.137977D+00
  0.444600D+00  0.478148D+00
  0.122000D+00  0.501240D+00
   s     1 1.00
  0.122000D+00  0.100000D+01
   p     1 1.00
  0.727000D+00  0.100000D+01
  
  9  0
   s     4 1.00
  0.130100D+02  0.196850D-01
  0.196200D+01  0.137977D+00
  0.444600D+00  0.478148D+00
  0.122000D+00  0.501240D+00
   s     1 1.00
  0.122000D+00  0.100000D+01
   p     1 1.00
  0.727000D+00  0.100000D+01
  
 10  0
   s     4 1.00
  0.130100D+02  0.196850D-01
  0.196200D+01  0.137977D+00
  0.444600D+00  0.478148D+00
  0.122000D+00  0.501240D+00
   s     1 1.00
  0.122000D+00  0.100000D+01
   p     1 1.00
  0.727000D+00  0.100000D+01
  
 11  0
   s     4 1.00
  0.130100D+02  0.196850D-01
  0.196200D+01  0.137977D+00
  0.444600D+00  0.478148D+00
  0.122000D+00  0.501240D+00
   s     1 1.00
  0.122000D+00  0.100000D+01
   p     1 1.00
  0.727000D+00  0.100000D+01
  
 12  0
   s     4 1.00
  0.130100D+02  0.196850D-01
  0.196200D+01  0.137977D+00
  0.444600D+00  0.478148D+00
  0.122000D+00  0.501240D+00
   s     1 1.00
  0.122000D+00  0.100000D+01
   p     1 1.00
  0.727000D+00  0.100000D+01
  
 13  0
   s     4 1.00
  0.130100D+02  0.196850D-01
  0.196200D+01  0.137977D+00
  0.444600D+00  0.478148D+00
  0.122000D+00  0.501240D+00
   s     1 1.00
  0.122000D+00  0.100000D+01
   p     1 1.00
  0.727000D+00  0.100000D+01
  
 14  0
   s     4 1.00
  0.130100D+02  0.196850D-01
  0.196200D+01  0.137977D+00
  0.444600D+00  0.478148D+00
  0.122000D+00  0.501240D+00
   s     1 1.00
  0.122000D+00  0.100000D+01
   p     1 1.00
  0.727000D+00  0.100000D+01
  
[MO]
 Sym= __1_a__
 Ene=  0.000000000000000E+000
 Spin= Alpha
 Occup=    2.00000000000000     
                     1  1.574133988582970E-004
                     2  0.998314867764663     
                     3 -3.080112655415330E-003
                     4  1.975605428116780E-003
                     5  6.546961359209550E-003
                     6  2.749120720409300E-003
                     7  5.892896714050800E-003
                     8  0.000000000000000E+000
                     9 -7.386204009001240E-004
                    10 -5.822188764048130E-004
                    11  0.000000000000000E+000
                    12 -2.571023258788700E-003
                    13 -1.523116061958400E-003
                    14  0.000000000000000E+000
                    15 -5.470261867568813E-005
                    16  0.000000000000000E+000
                    17  0.000000000000000E+000
                    18 -1.889686403418774E-004
                    19 -6.897320730905261E-005
                    20  1.257149471560353E-004
                    21  0.000000000000000E+000
                    22  0.000000000000000E+000
                    23 -1.876313732102254E-004
                    24  5.911989213896700E-004
                    25  0.000000000000000E+000
                    26  3.148142238967390E-006
                    27 -5.467674407078041E-005
                    28  0.000000000000000E+000
                    29  0.000000000000000E+000
                    30  1.751179883318097E-005
                    31 -1.099455450717350E-004
                    32 -3.983380747356160E-004
                    33  3.764164180609030E-004
                    34  3.260551710837470E-004
                    35 -3.355661566993180E-006
                    36  1.223478043351270E-004
                    37 -2.881271459609020E-003
                    38  0.000000000000000E+000
                    39  5.025395064147270E-004
                    40  2.466505257760820E-004
                    41  0.000000000000000E+000
                    42 -2.487099833215700E-003
                    43  5.040931324519870E-003
                    44  0.000000000000000E+000
                    45  4.251020782615581E-006
                    46  0.000000000000000E+000
                    47  0.000000000000000E+000
                    48 -1.329045028416574E-004
                    49  2.290560971936790E-005
                    50 -1.852883645126476E-004
                    51  0.000000000000000E+000
                    52  0.000000000000000E+000
                    53  2.072992129365460E-004
                    54  8.156648534215370E-004
                    55  0.000000000000000E+000
                    56 -8.560969168003706E-006
                    57 -8.837637513952246E-005
                    58  0.000000000000000E+000
                    59  0.000000000000000E+000
                    60 -2.181172307926405E-005
                    61 -1.430888971005727E-004
                    62 -5.996000192458730E-004
                    63 -2.384597219251050E-003
                    64 -8.422857118551420E-005
                    65  2.349748100775330E-003
                    66 -6.119912912890430E-004
                    67  1.401673574244660E-004
                    68  0.000000000000000E+000
                    69  4.491518097724760E-004
                    70  8.996812966966520E-004
                    71  0.000000000000000E+000
                    72 -1.638642892793920E-003
                    73  7.976188032919570E-004
                    74  0.000000000000000E+000
                    75 -4.396256550095408E-005
                    76  0.000000000000000E+000
                    77  0.000000000000000E+000
                    78 -7.336178695620100E-005
                    79 -2.730327005372470E-005
                    80 -1.510150076772682E-004
                    81  0.000000000000000E+000
                    82  0.000000000000000E+000
                    83  1.251988016562706E-004
                    84  8.658740940313050E-005
                    85  0.000000000000000E+000
                    86  6.526948580216070E-006
                    87 -4.031793451042231E-005
                    88  0.000000000000000E+000
                    89  0.000000000000000E+000
                    90 -1.198019705338178E-005
                    91 -1.583354682964047E-004
                    92 -1.110369276495280E-004
                    93 -3.316421025732800E-004
                    94  2.063732947638100E-004
                    95 -4.064635186774730E-004
                    96  1.644640218058550E-004
                    97 -1.703071334366250E-004
                    98  0.000000000000000E+000
                    99  4.112726937520390E-004
                   100  3.398375661204960E-004
                   101  0.000000000000000E+000
                   102  6.381293654623730E-004
                   103 -1.486699870719620E-003
                   104  0.000000000000000E+000
                   105 -1.424821633289214E-005
                   106  0.000000000000000E+000
                   107  0.000000000000000E+000
                   108 -2.972166438323120E-005
                   109 -9.866011010839289E-006
                   110  1.690629061762337E-004
                   111  0.000000000000000E+000
                   112  0.000000000000000E+000
                   113 -7.582674763531840E-005
                   114 -1.629490566861020E-005
                   115  0.000000000000000E+000
                   116 -2.328848770184238E-005
                   117 -2.520261931812275E-005
                   118  0.000000000000000E+000
                   119  0.000000000000000E+000
                   120  1.999974972185413E-005
                   121 -2.403596592788130E-005
                   122 -2.712943208402090E-004
                   123 -6.909165201967040E-004
                   124  1.678112369296460E-004
                   125  4.320851997435750E-004
                   126 -2.776766203308580E-005
                   127 -3.028398509699760E-004
                   128  0.000000000000000E+000
                   129  2.309146506465760E-004
                   130  6.192862746104360E-004
                   131  0.000000000000000E+000
                   132  2.980909358184320E-004
                   133  2.110114272287060E-003
                   134  0.000000000000000E+000
                   135  1.262488458618824E-005
                   136  0.000000000000000E+000
                   137  0.000000000000000E+000
                   138  4.876352196421040E-005
                   139 -2.106078184849080E-006
                   140  2.173760430655597E-004
                   141  0.000000000000000E+000
                   142  0.000000000000000E+000
                   143  3.980767755677380E-004
                   144  2.727984883820220E-004
                   145  0.000000000000000E+000
                   146 -1.123464162512590E-005
                   147 -6.560178037228393E-005
                   148  0.000000000000000E+000
                   149  0.000000000000000E+000
                   150 -2.023863375604222E-005
                   151 -5.670904405405193E-005
                   152 -1.665081932680840E-004
                   153 -5.342673693113510E-004
                   154  2.132647270528530E-005
                   155  4.277588509735170E-004
                   156  1.751446994142880E-005
                   157  2.394452936293010E-005
                   158  0.000000000000000E+000
                   159  3.770665681972900E-005
                   160 -2.977117763693920E-005
                   161  0.000000000000000E+000
                   162  6.872641782811460E-004
                   163 -3.891846987149030E-004
                   164  0.000000000000000E+000
                   165  4.968104937793835E-007
                   166  0.000000000000000E+000
                   167  0.000000000000000E+000
                   168 -1.321576420976420E-006
                   169  1.474930354301750E-005
                   170  5.543874573013731E-005
                   171  0.000000000000000E+000
                   172  0.000000000000000E+000
                   173  1.652862028015668E-005
                   174  2.806031424118610E-006
                   175  0.000000000000000E+000
                   176  5.240769511997400E-006
                   177 -9.298825175748757E-006
                   178  0.000000000000000E+000
                   179  0.000000000000000E+000
                   180 -2.944148327808971E-005
                   181 -1.562541023845711E-005
                   182 -1.632630841627940E-004
                   183 -4.715722066735150E-004
                   184  4.375858395745350E-005
                   185  2.346327160544770E-004
                   186 -4.939440637004680E-005
                   187 -7.187367757285271E-005
                   188  0.000000000000000E+000
                   189  2.424197606470850E-004
                   190  1.025221848420820E-004
                   191  0.000000000000000E+000
                   192  1.374018171115550E-003
                   193 -2.909038783952650E-004
                   194  0.000000000000000E+000
                   195  9.184092249049629E-007
                   196  0.000000000000000E+000
                   197  0.000000000000000E+000
                   198 -3.861138626711480E-006
                   199  8.493760484373730E-006
                   200  6.425475823085004E-006
                   201  0.000000000000000E+000
                   202  0.000000000000000E+000
                   203 -9.044585446646940E-005
                   204 -2.037867788913100E-004
                   205  0.000000000000000E+000
                   206 -7.679589858983069E-006
                   207 -4.848962757279705E-006
                   208  0.000000000000000E+000
                   209  0.000000000000000E+000
                   210  1.070929478949717E-005
                   211 -3.802211639274576E-006
                   212  1.104884673915600E-005
                   213 -2.793022731456510E-005
                   214 -1.376019493438300E-006
                   215 -7.730050665527620E-007
                   216  0.000000000000000E+000
                   217 -1.442935704924260E-003
                   218 -4.395712326402940E-004
                   219 -2.305565625380630E-004
                   220  6.340336231891911E-005
                   221  0.000000000000000E+000
                   222 -1.969014430708900E-004
                   223 -5.360944610390700E-004
                   224  3.155932420548980E-005
                   225 -6.960548223623550E-005
                   226  0.000000000000000E+000
                   227  1.367099994235310E-004
                   228 -7.229812581675860E-004
                   229 -4.084015632382530E-005
                   230 -1.683369582889080E-005
                   231  0.000000000000000E+000
                   232  2.770050916620740E-005
                   233 -6.451350595506270E-004
                   234  1.475421114402120E-005
                   235 -2.437565706589320E-006
                   236  0.000000000000000E+000
                   237  3.115411100850260E-005
                   238 -3.753650024241180E-004
                   239  1.000026392831080E-006
                   240  7.844724832134790E-006
                   241  0.000000000000000E+000
                   242 -7.355023586254530E-005
                   243  3.857816481077440E-005
                   244  5.815391664951080E-007
                   245  2.983362515466610E-005
                   246  0.000000000000000E+000
 Sym= __2_a__
 Ene=  0.000000000000000E+000
 Spin= Alpha
 Occup=    2.00000000000000     
                     1  1.243608735226940E-005
                     2  3.503302778456760E-004
                     3 -3.420573405746300E-003
                     4 -1.269398606522880E-004
                     5 -1.653599213420650E-003
                     6  1.204327123051070E-003
                     7 -4.355499316233700E-003
                     8  0.000000000000000E+000
                     9  5.086032164700360E-005
                    10  6.997596128197999E-005
                    11  0.000000000000000E+000
                    12 -2.048863970699160E-004
                    13  3.872747721691160E-004
                    14  0.000000000000000E+000
                    15 -2.432551492865142E-005
                    16  0.000000000000000E+000
                    17  0.000000000000000E+000
                    18  7.986238478433221E-005
                    19 -2.937113808515740E-005
                    20  1.608375698341930E-004
                    21  0.000000000000000E+000
                    22  0.000000000000000E+000
                    23 -6.250224191528840E-005
                    24  6.232406322369770E-005
                    25  0.000000000000000E+000
                    26  1.628387490179402E-005
                    27 -6.805132110578789E-005
                    28  0.000000000000000E+000
                    29  0.000000000000000E+000
                    30  3.166304418833488E-005
                    31 -1.300378110646285E-004
                    32  -1.00077600128682     
                    33 -9.540842517126310E-003
                    34 -2.887887682878060E-003
                    35  8.243967702293770E-003
                    36  4.252799480805000E-004
                    37  5.048070096701620E-003
                    38  0.000000000000000E+000
                    39 -1.628540876982000E-004
                    40 -5.333359470646940E-004
                    41  0.000000000000000E+000
                    42 -2.446588819090800E-004
                    43 -4.852811178125070E-003
                    44  0.000000000000000E+000
                    45  5.379179355261698E-004
                    46  0.000000000000000E+000
                    47  0.000000000000000E+000
                    48  2.483543809657280E-004
                    49  2.153245243763750E-006
                    50 -5.567253455906617E-004
                    51  0.000000000000000E+000
                    52  0.000000000000000E+000
                    53  8.967420266107600E-004
                    54  1.272877963228010E-005
                    55  0.000000000000000E+000
                    56 -1.206637511190180E-006
                    57 -1.140265999875230E-004
                    58  0.000000000000000E+000
                    59  0.000000000000000E+000
                    60 -2.244473678875287E-006
                    61 -4.003476012979458E-004
                    62 -1.452469743647470E-002
                    63  2.380031003861010E-003
                    64  2.617791363100170E-004
                    65 -3.034399238504080E-003
                    66  2.783805140444410E-004
                    67 -4.344394702972310E-004
                    68  0.000000000000000E+000
                    69 -7.152203188563990E-004
                    70 -4.919297168913460E-006
                    71  0.000000000000000E+000
                    72  2.010809554192380E-003
                    73  2.366435846679440E-005
                    74  0.000000000000000E+000
                    75 -2.736576157745229E-005
                    76  0.000000000000000E+000
                    77  0.000000000000000E+000
                    78  2.923574471140260E-005
                    79  5.679075325797900E-007
                    80  4.110034762043197E-004
                    81  0.000000000000000E+000
                    82  0.000000000000000E+000
                    83  6.176271230501080E-004
                    84  3.378401807402580E-004
                    85  0.000000000000000E+000
                    86 -3.378577301175532E-005
                    87  5.939125109820798E-005
                    88  0.000000000000000E+000
                    89  0.000000000000000E+000
                    90 -6.192139413773995E-005
                    91 -1.488618853417367E-004
                    92 -1.601211502814420E-002
                    93  2.385717418869680E-003
                    94  2.582798513265110E-004
                    95 -3.057528912159390E-003
                    96 -5.693337437478280E-004
                    97 -5.435761987301520E-004
                    98  0.000000000000000E+000
                    99  7.332845983436920E-004
                   100 -5.349412236761890E-005
                   101  0.000000000000000E+000
                   102 -2.188777934499660E-003
                   103 -3.910821973784600E-005
                   104  0.000000000000000E+000
                   105 -3.104055672282101E-005
                   106  0.000000000000000E+000
                   107  0.000000000000000E+000
                   108  3.172801166577980E-005
                   109  1.553293765076480E-005
                   110  3.969749025282697E-004
                   111  0.000000000000000E+000
                   112  0.000000000000000E+000
                   113  6.177848917546620E-004
                   114 -3.096458284908670E-004
                   115  0.000000000000000E+000
                   116  3.848994562265101E-005
                   117  6.588451073259784E-005
                   118  0.000000000000000E+000
                   119  0.000000000000000E+000
                   120  5.514498174630138E-005
                   121 -1.427120478462368E-004
                   122 -2.184835752839640E-004
                   123  5.325313801045520E-004
                   124 -2.219520301952880E-004
                   125  7.494398385295380E-005
                   126  8.987919962594721E-006
                   127  5.802978295635020E-004
                   128  0.000000000000000E+000
                   129  7.190146337798730E-005
                   130 -5.549714252007420E-004
                   131  0.000000000000000E+000
                   132 -2.229928494551330E-004
                   133 -8.185664480914511E-004
                   134  0.000000000000000E+000
                   135 -1.656480810764258E-005
                   136  0.000000000000000E+000
                   137  0.000000000000000E+000
                   138  1.803528082463026E-006
                   139 -5.866832907938910E-005
                   140 -1.353951212543320E-004
                   141  0.000000000000000E+000
                   142  0.000000000000000E+000
                   143 -2.433675268364100E-004
                   144  1.441082120988220E-004
                   145  0.000000000000000E+000
                   146 -8.759134178490113E-006
                   147  3.450543981286324E-005
                   148  0.000000000000000E+000
                   149  0.000000000000000E+000
                   150  5.367616111543595E-005
                   151 -3.414740368583462E-005
                   152 -4.730446375528560E-004
                   153  5.163412933782290E-004
                   154 -2.285894542412710E-004
                   155  9.766791889291809E-005
                   156  4.582152853292680E-005
                   157  6.411230474016220E-004
                   158  0.000000000000000E+000
                   159 -7.366568892906490E-005
                   160 -5.942972878263060E-004