[Molden Format]
[Atoms] AU
  N     1    7     0.0000000000   -4.2907334100    0.0000000000        
  C     2    6     0.0000000000   -1.7772236300    0.0000000000        
  C     3    6    -2.3389203600   -0.4111016300    0.0000000000        
  C     4    6     2.3389203600   -0.4111016300    0.0000000000        
  C     5    6    -2.2998668500    2.1639215300    0.0000000000        
  C     6    6     2.2998668500    2.1639215300    0.0000000000        
  C     7    6     0.0000000000    3.4755251800    0.0000000000        
  H     8    1    -4.0207515100   -6.7711996300    0.0000000000        
  H     9    1     1.6528040300   -5.3103747800    0.0000000000        
  H    10    1    -4.0745407300   -1.4447408500    0.0000000000        
  H    11    1     4.0745407300   -1.4447408500    0.0000000000        
  H    12    1    -4.0420632100    3.1963889500    0.0000000000        
  H    13    1     4.0420632100    3.1963889500    0.0000000000        
  H    14    1     0.0000000000    5.5020335600    0.0000000000        
[5D]
[7F]
[GTO]
  1  0
   s    12 1.00
  0.114200D+05  0.172695D-04
  0.171200D+04  0.134411D-03
  0.389300D+03  0.694561D-03
  0.110000D+03  0.278531D-02
  0.355700D+02  0.863457D-02
  0.125400D+02  0.199805D-01
  0.464400D+01  0.262908D-01
  0.129300D+01 -0.243845D-01
  0.511800D+00 -0.924934D-01
  0.178700D+00 -0.339683D+00
  0.246240D-01  0.345111D+00
  0.112530D-01  0.752750D+00
   s    10 1.00
  0.114200D+05  0.523000D-03
  0.171200D+04  0.404500D-02
  0.389300D+03  0.207750D-01
  0.110000D+03  0.807269D-01
  0.355700D+02  0.233074D+00
  0.125400D+02  0.433501D+00
  0.464400D+01  0.347472D+00
  0.129300D+01  0.412620D-01
  0.511800D+00 -0.850799D-02
  0.178700D+00  0.238400D-02
   s    10 1.00
  0.114200D+05 -0.115000D-03
  0.171200D+04 -0.895000D-03
  0.389300D+03 -0.462400D-02
  0.110000D+03 -0.185280D-01
  0.355700D+02 -0.573390D-01
  0.125400D+02 -0.132076D+00
  0.464400D+01 -0.172510D+00
  0.129300D+01  0.151814D+00
  0.511800D+00  0.599944D+00
  0.178700D+00  0.387462D+00
   s     1 1.00
  0.129300D+01  0.100000D+01
   s     1 1.00
  0.178700D+00  0.100000D+01
   p     5 1.00
  0.266300D+02  0.146700D-01
  0.594800D+01  0.917640D-01
  0.174200D+01  0.298683D+00
  0.555000D+00  0.498487D+00
  0.172500D+00  0.337023D+00
   p     1 1.00
  0.174200D+01  0.100000D+01
   p     1 1.00
  0.555000D+00  0.100000D+01
   d     1 1.00
  0.165400D+01  0.100000D+01
   d     1 1.00
  0.469000D+00  0.100000D+01
   f     1 1.00
  0.109300D+01  0.100000D+01
  
  2  0
   s    10 1.00
  0.823600D+04  0.531000D-03
  0.123500D+04  0.410800D-02
  0.280800D+03  0.210870D-01
  0.792700D+02  0.818530D-01
  0.255900D+02  0.234817D+00
  0.899700D+01  0.434401D+00
  0.331900D+01  0.346129D+00
  0.905900D+00  0.393780D-01
  0.364300D+00 -0.898300D-02
  0.128500D+00  0.238500D-02
   s    10 1.00
  0.823600D+04 -0.113000D-03
  0.123500D+04 -0.878000D-03
  0.280800D+03 -0.454000D-02
  0.792700D+02 -0.181330D-01
  0.255900D+02 -0.557600D-01
  0.899700D+01 -0.126895D+00
  0.331900D+01 -0.170352D+00
  0.905900D+00  0.140382D+00
  0.364300D+00  0.598684D+00
  0.128500D+00  0.395389D+00
   s     1 1.00
  0.905900D+00  0.100000D+01
   s     1 1.00
  0.364300D+00  0.100000D+01
   p     5 1.00
  0.187100D+02  0.140310D-01
  0.413300D+01  0.868660D-01
  0.120000D+01  0.290216D+00
  0.382700D+00  0.501008D+00
  0.120900D+00  0.343406D+00
   p     1 1.00
  0.382700D+00  0.100000D+01
   p     1 1.00
  0.120900D+00  0.100000D+01
   d     1 1.00
  0.109700D+01  0.100000D+01
   d     1 1.00
  0.318000D+00  0.100000D+01
   f     1 1.00
  0.761000D+00  0.100000D+01
  
  3  0
   s    10 1.00
  0.823600D+04  0.531000D-03
  0.123500D+04  0.410800D-02
  0.280800D+03  0.210870D-01
  0.792700D+02  0.818530D-01
  0.255900D+02  0.234817D+00
  0.899700D+01  0.434401D+00
  0.331900D+01  0.346129D+00
  0.905900D+00  0.393780D-01
  0.364300D+00 -0.898300D-02
  0.128500D+00  0.238500D-02
   s    10 1.00
  0.823600D+04 -0.113000D-03
  0.123500D+04 -0.878000D-03
  0.280800D+03 -0.454000D-02
  0.792700D+02 -0.181330D-01
  0.255900D+02 -0.557600D-01
  0.899700D+01 -0.126895D+00
  0.331900D+01 -0.170352D+00
  0.905900D+00  0.140382D+00
  0.364300D+00  0.598684D+00
  0.128500D+00  0.395389D+00
   s     1 1.00
  0.905900D+00  0.100000D+01
   s     1 1.00
  0.364300D+00  0.100000D+01
   p     5 1.00
  0.187100D+02  0.140310D-01
  0.413300D+01  0.868660D-01
  0.120000D+01  0.290216D+00
  0.382700D+00  0.501008D+00
  0.120900D+00  0.343406D+00
   p     1 1.00
  0.382700D+00  0.100000D+01
   p     1 1.00
  0.120900D+00  0.100000D+01
   d     1 1.00
  0.109700D+01  0.100000D+01
   d     1 1.00
  0.318000D+00  0.100000D+01
   f     1 1.00
  0.761000D+00  0.100000D+01
  
  4  0
   s    10 1.00
  0.823600D+04  0.531000D-03
  0.123500D+04  0.410800D-02
  0.280800D+03  0.210870D-01
  0.792700D+02  0.818530D-01
  0.255900D+02  0.234817D+00
  0.899700D+01  0.434401D+00
  0.331900D+01  0.346129D+00
  0.905900D+00  0.393780D-01
  0.364300D+00 -0.898300D-02
  0.128500D+00  0.238500D-02
   s    10 1.00
  0.823600D+04 -0.113000D-03
  0.123500D+04 -0.878000D-03
  0.280800D+03 -0.454000D-02
  0.792700D+02 -0.181330D-01
  0.255900D+02 -0.557600D-01
  0.899700D+01 -0.126895D+00
  0.331900D+01 -0.170352D+00
  0.905900D+00  0.140382D+00
  0.364300D+00  0.598684D+00
  0.128500D+00  0.395389D+00
   s     1 1.00
  0.905900D+00  0.100000D+01
   s     1 1.00
  0.364300D+00  0.100000D+01
   p     5 1.00
  0.187100D+02  0.140310D-01
  0.413300D+01  0.868660D-01
  0.120000D+01  0.290216D+00
  0.382700D+00  0.501008D+00
  0.120900D+00  0.343406D+00
   p     1 1.00
  0.382700D+00  0.100000D+01
   p     1 1.00
  0.120900D+00  0.100000D+01
   d     1 1.00
  0.109700D+01  0.100000D+01
   d     1 1.00
  0.318000D+00  0.100000D+01
   f     1 1.00
  0.761000D+00  0.100000D+01
  
  5  0
   s    10 1.00
  0.823600D+04  0.531000D-03
  0.123500D+04  0.410800D-02
  0.280800D+03  0.210870D-01
  0.792700D+02  0.818530D-01
  0.255900D+02  0.234817D+00
  0.899700D+01  0.434401D+00
  0.331900D+01  0.346129D+00
  0.905900D+00  0.393780D-01
  0.364300D+00 -0.898300D-02
  0.128500D+00  0.238500D-02
   s    10 1.00
  0.823600D+04 -0.113000D-03
  0.123500D+04 -0.878000D-03
  0.280800D+03 -0.454000D-02
  0.792700D+02 -0.181330D-01
  0.255900D+02 -0.557600D-01
  0.899700D+01 -0.126895D+00
  0.331900D+01 -0.170352D+00
  0.905900D+00  0.140382D+00
  0.364300D+00  0.598684D+00
  0.128500D+00  0.395389D+00
   s     1 1.00
  0.905900D+00  0.100000D+01
   s     1 1.00
  0.364300D+00  0.100000D+01
   p     5 1.00
  0.187100D+02  0.140310D-01
  0.413300D+01  0.868660D-01
  0.120000D+01  0.290216D+00
  0.382700D+00  0.501008D+00
  0.120900D+00  0.343406D+00
   p     1 1.00
  0.382700D+00  0.100000D+01
   p     1 1.00
  0.120900D+00  0.100000D+01
   d     1 1.00
  0.109700D+01  0.100000D+01
   d     1 1.00
  0.318000D+00  0.100000D+01
   f     1 1.00
  0.761000D+00  0.100000D+01
  
  6  0
   s    10 1.00
  0.823600D+04  0.531000D-03
  0.123500D+04  0.410800D-02
  0.280800D+03  0.210870D-01
  0.792700D+02  0.818530D-01
  0.255900D+02  0.234817D+00
  0.899700D+01  0.434401D+00
  0.331900D+01  0.346129D+00
  0.905900D+00  0.393780D-01
  0.364300D+00 -0.898300D-02
  0.128500D+00  0.238500D-02
   s    10 1.00
  0.823600D+04 -0.113000D-03
  0.123500D+04 -0.878000D-03
  0.280800D+03 -0.454000D-02
  0.792700D+02 -0.181330D-01
  0.255900D+02 -0.557600D-01
  0.899700D+01 -0.126895D+00
  0.331900D+01 -0.170352D+00
  0.905900D+00  0.140382D+00
  0.364300D+00  0.598684D+00
  0.128500D+00  0.395389D+00
   s     1 1.00
  0.905900D+00  0.100000D+01
   s     1 1.00
  0.364300D+00  0.100000D+01
   p     5 1.00
  0.187100D+02  0.140310D-01
  0.413300D+01  0.868660D-01
  0.120000D+01  0.290216D+00
  0.382700D+00  0.501008D+00
  0.120900D+00  0.343406D+00
   p     1 1.00
  0.382700D+00  0.100000D+01
   p     1 1.00
  0.120900D+00  0.100000D+01
   d     1 1.00
  0.109700D+01  0.100000D+01
   d     1 1.00
  0.318000D+00  0.100000D+01
   f     1 1.00
  0.761000D+00  0.100000D+01
  
  7  0
   s    10 1.00
  0.823600D+04  0.531000D-03
  0.123500D+04  0.410800D-02
  0.280800D+03  0.210870D-01
  0.792700D+02  0.818530D-01
  0.255900D+02  0.234817D+00
  0.899700D+01  0.434401D+00
  0.331900D+01  0.346129D+00
  0.905900D+00  0.393780D-01
  0.364300D+00 -0.898300D-02
  0.128500D+00  0.238500D-02
   s    10 1.00
  0.823600D+04 -0.113000D-03
  0.123500D+04 -0.878000D-03
  0.280800D+03 -0.454000D-02
  0.792700D+02 -0.181330D-01
  0.255900D+02 -0.557600D-01
  0.899700D+01 -0.126895D+00
  0.331900D+01 -0.170352D+00
  0.905900D+00  0.140382D+00
  0.364300D+00  0.598684D+00
  0.128500D+00  0.395389D+00
   s     1 1.00
  0.905900D+00  0.100000D+01
   s     1 1.00
  0.364300D+00  0.100000D+01
   p     5 1.00
  0.187100D+02  0.140310D-01
  0.413300D+01  0.868660D-01
  0.120000D+01  0.290216D+00
  0.382700D+00  0.501008D+00
  0.120900D+00  0.343406D+00
   p     1 1.00
  0.382700D+00  0.100000D+01
   p     1 1.00
  0.120900D+00  0.100000D+01
   d     1 1.00
  0.109700D+01  0.100000D+01
   d     1 1.00
  0.318000D+00  0.100000D+01
   f     1 1.00
  0.761000D+00  0.100000D+01
  
  8  0
   s     4 1.00
  0.130100D+02  0.196850D-01
  0.196200D+01  0.137977D+00
  0.444600D+00  0.478148D+00
  0.122000D+00  0.501240D+00
   s     1 1.00
  0.122000D+00  0.100000D+01
   p     1 1.00
  0.727000D+00  0.100000D+01
  
  9  0
   s     4 1.00
  0.130100D+02  0.196850D-01
  0.196200D+01  0.137977D+00
  0.444600D+00  0.478148D+00
  0.122000D+00  0.501240D+00
   s     1 1.00
  0.122000D+00  0.100000D+01
   p     1 1.00
  0.727000D+00  0.100000D+01
  
 10  0
   s     4 1.00
  0.130100D+02  0.196850D-01
  0.196200D+01  0.137977D+00
  0.444600D+00  0.478148D+00
  0.122000D+00  0.501240D+00
   s     1 1.00
  0.122000D+00  0.100000D+01
   p     1 1.00
  0.727000D+00  0.100000D+01
  
 11  0
   s     4 1.00
  0.130100D+02  0.196850D-01
  0.196200D+01  0.137977D+00
  0.444600D+00  0.478148D+00
  0.122000D+00  0.501240D+00
   s     1 1.00
  0.122000D+00  0.100000D+01
   p     1 1.00
  0.727000D+00  0.100000D+01
  
 12  0
   s     4 1.00
  0.130100D+02  0.196850D-01
  0.196200D+01  0.137977D+00
  0.444600D+00  0.478148D+00
  0.122000D+00  0.501240D+00
   s     1 1.00
  0.122000D+00  0.100000D+01
   p     1 1.00
  0.727000D+00  0.100000D+01
  
 13  0
   s     4 1.00
  0.130100D+02  0.196850D-01
  0.196200D+01  0.137977D+00
  0.444600D+00  0.478148D+00
  0.122000D+00  0.501240D+00
   s     1 1.00
  0.122000D+00  0.100000D+01
   p     1 1.00
  0.727000D+00  0.100000D+01
  
 14  0
   s     4 1.00
  0.130100D+02  0.196850D-01
  0.196200D+01  0.137977D+00
  0.444600D+00  0.478148D+00
  0.122000D+00  0.501240D+00
   s     1 1.00
  0.122000D+00  0.100000D+01
   p     1 1.00
  0.727000D+00  0.100000D+01
  
[MO]
 Sym= __1_A__
 Ene=   1.00000000000000     
 Spin= Alpha
 Occup=    1.00000000000000     
                     1  1.010899831019957E-004
                     2  0.998360750811575     
                     3 -4.810175865537545E-003
                     4  1.972735175530186E-003
                     5  6.462872577545576E-003
                     6  2.692845628948306E-003
                     7  5.330363855806503E-003
                     8  0.000000000000000E+000
                     9 -7.708804734408711E-004
                    10 -5.791546546954312E-004
                    11  0.000000000000000E+000
                    12 -2.535574796377579E-003
                    13 -1.591741540186641E-003
                    14  0.000000000000000E+000
                    15 -4.194801498004964E-005
                    16  0.000000000000000E+000
                    17  0.000000000000000E+000
                    18 -1.725155998603793E-004
                    19 -6.814948243561587E-005
                    20  1.618319394798443E-004
                    21  0.000000000000000E+000
                    22  0.000000000000000E+000
                    23 -1.099458382097658E-004
                    24  5.681404196822508E-004
                    25  0.000000000000000E+000
                    26  5.297192232514232E-006
                    27 -4.357946611794640E-005
                    28  0.000000000000000E+000
                    29  0.000000000000000E+000
                    30  1.691029783798950E-005
                    31 -8.892418541642518E-005
                    32 -2.421576690189509E-004
                    33  2.165562055394772E-004
                    34  2.971663829221246E-004
                    35 -3.675803203322205E-005
                    36 -5.679299358445931E-005
                    37 -1.791228707302064E-003
                    38  0.000000000000000E+000
                    39  4.889441038501619E-004
                    40  1.383628568511397E-005
                    41  0.000000000000000E+000
                    42 -2.261351579624452E-003
                    43  4.657016153686710E-003
                    44  0.000000000000000E+000
                    45  1.132885389412501E-005
                    46  0.000000000000000E+000
                    47  0.000000000000000E+000
                    48 -9.508554021989306E-005
                    49  1.371637365024295E-005
                    50 -1.648070567352184E-004
                    51  0.000000000000000E+000
                    52  0.000000000000000E+000
                    53  1.350169688675985E-004
                    54  8.092890374718608E-004
                    55  0.000000000000000E+000
                    56 -9.719656625387768E-006
                    57 -9.036021296499871E-005
                    58  0.000000000000000E+000
                    59  0.000000000000000E+000
                    60 -2.174016603121150E-005
                    61 -1.485459894810072E-004
                    62 -5.469810906581185E-004
                    63 -1.979398303198306E-003
                    64 -1.080912095655265E-004
                    65  2.261838112179526E-003
                    66 -3.002029831932050E-004
                    67 -1.062689060225548E-004
                    68  0.000000000000000E+000
                    69  4.557208689335028E-004
                    70  8.656342498588270E-004
                    71  0.000000000000000E+000
                    72 -1.728022181194015E-003
                    73  6.789059841979087E-004
                    74  0.000000000000000E+000
                    75 -4.983915309308317E-005
                    76  0.000000000000000E+000
                    77  0.000000000000000E+000
                    78 -5.197732979915290E-005
                    79 -3.390907123181301E-005
                    80 -1.610354432381186E-004
                    81  0.000000000000000E+000
                    82  0.000000000000000E+000
                    83  1.021705081822476E-004
                    84  3.055080840834108E-005
                    85  0.000000000000000E+000
                    86  5.110527772004781E-006
                    87 -4.060455711015110E-005
                    88  0.000000000000000E+000
                    89  0.000000000000000E+000
                    90 -1.851077873197872E-005
                    91 -1.625387000526056E-004
                    92 -1.035342452676339E-004
                    93 -2.239791689355785E-004
                    94  1.893201730457366E-004
                    95 -3.717773027138611E-004
                    96  1.554331248569797E-005
                    97 -2.064269965880506E-004
                    98  0.000000000000000E+000
                    99  4.043216163201182E-004
                   100  3.004845932395309E-004
                   101  0.000000000000000E+000
                   102  5.762193947461097E-004
                   103 -1.413546819676533E-003
                   104  0.000000000000000E+000
                   105 -1.579993324265881E-005
                   106  0.000000000000000E+000
                   107  0.000000000000000E+000
                   108 -1.870710437694244E-005
                   109 -1.034185738569931E-005
                   110  1.453602769069720E-004
                   111  0.000000000000000E+000
                   112  0.000000000000000E+000
                   113 -7.225052500549595E-005
                   114  2.443361472037466E-005
                   115  0.000000000000000E+000
                   116 -1.930234503364056E-005
                   117 -2.467026457412838E-005
                   118  0.000000000000000E+000
                   119  0.000000000000000E+000
                   120  2.511088315818774E-005
                   121 -3.090437511679665E-005
                   122 -2.588377515912256E-004
                   123 -7.501346486018621E-004
                   124  1.762796661631697E-004
                   125  3.532719028792098E-004
                   126 -3.739155613631654E-005
                   127 -1.594384219702809E-004
                   128  0.000000000000000E+000
                   129  2.217470463577800E-004
                   130  6.080217002133735E-004
                   131  0.000000000000000E+000
                   132  3.367358324192183E-004
                   133  1.901500979309604E-003
                   134  0.000000000000000E+000
                   135  1.504875087559044E-005
                   136  0.000000000000000E+000
                   137  0.000000000000000E+000
                   138  5.302355464207880E-005
                   139 -7.711846535625989E-006
                   140  2.185489111335592E-004
                   141  0.000000000000000E+000
                   142  0.000000000000000E+000
                   143  3.821316531856654E-004
                   144  2.219216956781952E-004
                   145  0.000000000000000E+000
                   146 -1.132919510522976E-005
                   147 -6.386686329742700E-005
                   148  0.000000000000000E+000
                   149  0.000000000000000E+000
                   150 -1.402866122526072E-005
                   151 -6.009849697299447E-005
                   152 -1.625406530576337E-004
                   153 -5.518304628518507E-004
                   154  2.333584014669500E-005
                   155  4.136685421902143E-004
                   156  5.927552908165147E-006
                   157  5.806478321142568E-005
                   158  0.000000000000000E+000
                   159  5.068658615064400E-006
                   160 -2.483274625143781E-005
                   161  0.000000000000000E+000
                   162  6.898375267945611E-004
                   163 -3.341997883641604E-004
                   164  0.000000000000000E+000
                   165 -3.954589786803777E-007
                   166  0.000000000000000E+000
                   167  0.000000000000000E+000
                   168  2.899429935338454E-007
                   169  1.790454354747967E-005
                   170  6.160130855400007E-005
                   171  0.000000000000000E+000
                   172  0.000000000000000E+000
                   173  1.301957234605008E-005
                   174  1.277384368675360E-005
                   175  0.000000000000000E+000
                   176  6.681072138571515E-006
                   177 -9.085292114868409E-006
                   178  0.000000000000000E+000
                   179  0.000000000000000E+000
                   180 -3.290089460794333E-005
                   181 -1.667124489449741E-005
                   182 -1.552423330340114E-004
                   183 -4.607027490312160E-004
                   184  3.901762852974358E-005
                   185  2.477761434389180E-004
                   186 -3.802021216690572E-005
                   187 -5.534548183718579E-005
                   188  0.000000000000000E+000
                   189  2.130479256431778E-004
                   190  8.690260520364671E-005
                   191  0.000000000000000E+000
                   192  1.246812711062888E-003
                   193 -2.552092269396258E-004
                   194  0.000000000000000E+000
                   195 -6.695215462733995E-007
                   196  0.000000000000000E+000
                   197  0.000000000000000E+000
                   198 -3.500768885545300E-006
                   199  8.075364061274467E-006
                   200  9.547180083731593E-006
                   201  0.000000000000000E+000
                   202  0.000000000000000E+000
                   203 -7.562637740452794E-005
                   204 -1.852669967787151E-004
                   205  0.000000000000000E+000
                   206 -5.964443423361712E-006
                   207 -3.969545148277246E-006
                   208  0.000000000000000E+000
                   209  0.000000000000000E+000
                   210  1.060135554835824E-005
                   211 -2.908405562935119E-006
                   212 -2.418239356745167E-005
                   213  1.229651670472668E-004
                   214  1.989568976237324E-005
                   215  2.846819073720400E-005
                   216  0.000000000000000E+000
                   217 -1.821515836735928E-003
                   218 -1.793468141377042E-004
                   219 -1.982836448668567E-004
                   220  2.646126698269527E-005
                   221  0.000000000000000E+000
                   222 -1.757500040921225E-004
                   223 -6.543170454685318E-004
                   224  2.708376894428379E-005
                   225 -6.950251092020172E-005
                   226  0.000000000000000E+000
                   227  1.288590592924981E-004
                   228 -6.251919602820053E-004
                   229 -3.591560503448630E-005
                   230 -1.614014990917784E-005
                   231  0.000000000000000E+000
                   232  8.802421481597166E-005
                   233 -5.419341730630910E-004
                   234  1.744599120985384E-005
                   235 -3.535748895291225E-006
                   236  0.000000000000000E+000
                   237  4.460563523525839E-005
                   238 -3.630396751909048E-004
                   239 -3.359742201038502E-006
                   240  4.587380093313294E-006
                   241  0.000000000000000E+000
                   242 -6.683386671597381E-005
                   243  2.616086499538862E-005
                   244  5.248000180724810E-007
                   245  2.544805640085744E-005
                   246  0.000000000000000E+000
 Sym= __2_A__
 Ene=   2.00000000000000     
 Spin= Alpha
 Occup=    1.00000000000000     
                     1  4.562593316337361E-005
                     2  3.888272212631495E-004
                     3 -3.018861023370866E-003
                     4 -1.359064642841560E-004
                     5 -1.368169212278567E-003
                     6  3.414113235170029E-004
                     7 -2.903190360465882E-003
                     8  0.000000000000000E+000
                     9  8.264133597062403E-005
                    10  1.000511514356919E-004
                    11  0.000000000000000E+000
                    12 -9.788813849163970E-005
                    13  3.951941396656881E-004
                    14  0.000000000000000E+000
                    15 -2.665342817272989E-005
                    16  0.000000000000000E+000
                    17  0.000000000000000E+000
                    18  4.254771944137366E-005
                    19 -1.016180987869783E-005
                    20  1.184429241733067E-004
                    21  0.000000000000000E+000
                    22  0.000000000000000E+000
                    23 -1.511125954422693E-004
                    24  3.794537746148672E-005
                    25  0.000000000000000E+000
                    26  2.257086504779636E-005
                    27 -8.539126134688093E-005
                    28  0.000000000000000E+000
                    29  0.000000000000000E+000
                    30  2.485600060713488E-005
                    31 -1.442037690003363E-004
                    32  -1.00091696210093     
                    33 -9.184527084868150E-003
                    34 -2.801818840299535E-003
                    35  8.186149419881430E-003
                    36  2.981196451115381E-004
                    37  3.633473077731840E-003
                    38  0.000000000000000E+000
                    39 -2.029847503856627E-004
                    40 -3.809749294110757E-004
                    41  0.000000000000000E+000
                    42 -3.831865595357417E-005
                    43 -4.219703703142205E-003
                    44  0.000000000000000E+000
                    45  5.386716105717496E-004
                    46  0.000000000000000E+000
                    47  0.000000000000000E+000
                    48  2.018661163951756E-004
                    49  1.474035525669462E-005
                    50 -5.641965152111253E-004
                    51  0.000000000000000E+000
                    52  0.000000000000000E+000
                    53  9.019971964379498E-004
                    54 -6.127186976005286E-005
                    55  0.000000000000000E+000
                    56  4.328536202245468E-006
                    57 -1.040284732049151E-004
                    58  0.000000000000000E+000
                    59  0.000000000000000E+000
                    60 -4.930267892852553E-006
                    61 -3.904981558055943E-004
                    62 -1.273484687773651E-002
                    63  2.067959029096335E-003
                    64  2.954139338112562E-004
                    65 -3.067217658687374E-003
                    66  4.001652346026550E-005
                    67 -1.886447270637510E-004
                    68  0.000000000000000E+000
                    69 -7.573482140276603E-004
                    70 -3.542080898709381E-006
                    71  0.000000000000000E+000
                    72  2.073493420805515E-003
                    73 -5.145752357573350E-005
                    74  0.000000000000000E+000
                    75 -2.306379741603170E-005
                    76  0.000000000000000E+000
                    77  0.000000000000000E+000
                    78  5.848752686739990E-006
                    79  1.675176701571937E-006
                    80  4.234935820739525E-004
                    81  0.000000000000000E+000
                    82  0.000000000000000E+000
                    83  5.935558232644580E-004
                    84  3.702433614812546E-004
                    85  0.000000000000000E+000
                    86 -3.283171636125401E-005
                    87  6.100402773247664E-005
                    88  0.000000000000000E+000
                    89  0.000000000000000E+000
                    90 -5.087526819323763E-005
                    91 -1.400480276376720E-004
                    92 -1.421580726714635E-002
                    93  2.121576538982915E-003
                    94  2.656882742011566E-004
                    95 -2.970679741717968E-003
                    96 -1.856314477578982E-004
                    97 -2.658107833719291E-004
                    98  0.000000000000000E+000
                    99  6.627325712432615E-004
                   100 -4.728111528099322E-005
                   101  0.000000000000000E+000
                   102 -1.983186654199359E-003
                   103  4.350122396136689E-006
                   104  0.000000000000000E+000
                   105 -3.123148986748313E-005
                   106  0.000000000000000E+000
                   107  0.000000000000000E+000
                   108  1.181926372867889E-005
                   109  1.288948276598243E-005
                   110  4.083713344528485E-004
                   111  0.000000000000000E+000
                   112  0.000000000000000E+000
                   113  6.200818852999546E-004
                   114 -3.447789629208746E-004
                   115  0.000000000000000E+000
                   116  3.479204483831635E-005
                   117  6.297765691412708E-005
                   118  0.000000000000000E+000
                   119  0.000000000000000E+000
                   120  4.771601616432804E-005
                   121 -1.388494466935778E-004
                   122  3.194896269469542E-005
                   123  6.187574782614179E-004
                   124 -2.292634215893321E-004
                   125  1.269331111972661E-004
                   126  3.448775190287708E-006
                   127  4.115908209972398E-004
                   128  0.000000000000000E+000
                   129  6.784299388137239E-005
                   130 -5.596555785513962E-004
                   131  0.000000000000000E+000
                   132 -3.366909511621280E-004
                   133 -7.822721352426605E-004
                   134  0.000000000000000E+000
                   135 -1.890835396138831E-005
                   136  0.000000000000000E+000
                   137  0.000000000000000E+000
                   138 -3.410509430236930E-006
                   139 -5.308480330887386E-005
                   140 -1.398364824275745E-004
                   141  0.000000000000000E+000
                   142  0.000000000000000E+000
                   143 -2.462264072155782E-004
                   144  1.754394324166771E-004
                   145  0.000000000000000E+000
                   146 -7.545706248609186E-006
                   147  3.512044359597573E-005
                   148  0.000000000000000E+000
                   149  0.000000000000000E+000
                   150  4.879884407241228E-005
                   151 -2.865650746569802E-005
                   152 -8.696657710925643E-005
                   153  6.062529587906188E-004
                   154 -2.289956585320626E-004
                   155  1.397730288109198E-004
                   156  1.711636275576163E-005
                   157  4.468758062610818E-004
                   158  0.000000000000000E+000
                   159 -5.524401978497372E-005
                   160 -5.761287317497979E-004