[Molden Format]
[Atoms] AU
  N     1    7     0.0000000000    0.0000000000   -4.2907334100        
  C     2    6     0.0000000000    0.0000000000   -1.7772236300        
  C     3    6     0.0000000000   -2.3389203600   -0.4111016300        
  C     4    6     0.0000000000    2.3389203600   -0.4111016300        
  C     5    6     0.0000000000   -2.2998668500    2.1639215300        
  C     6    6     0.0000000000    2.2998668500    2.1639215300        
  C     7    6     0.0000000000    0.0000000000    3.4755251800        
  H     8    1     0.0000000000   -1.4474705400   -5.1837012500        
  H     9    1     0.0000000000    1.6528040300   -5.3103747800        
  H    10    1     0.0000000000   -4.0745407300   -1.4447408500        
  H    11    1     0.0000000000    4.0745407300   -1.4447408500        
  H    12    1     0.0000000000   -4.0420632100    3.1963889500        
  H    13    1     0.0000000000    4.0420632100    3.1963889500        
  H    14    1     0.0000000000    0.0000000000    5.5020335600        
[5D]
[7F]
[GTO]
  1  0
   s    12 1.00
  0.114200D+05  0.172695D-04
  0.171200D+04  0.134411D-03
  0.389300D+03  0.694561D-03
  0.110000D+03  0.278531D-02
  0.355700D+02  0.863457D-02
  0.125400D+02  0.199805D-01
  0.464400D+01  0.262908D-01
  0.129300D+01 -0.243845D-01
  0.511800D+00 -0.924934D-01
  0.178700D+00 -0.339683D+00
  0.246240D-01  0.345111D+00
  0.112530D-01  0.752750D+00
   s    10 1.00
  0.114200D+05  0.523000D-03
  0.171200D+04  0.404500D-02
  0.389300D+03  0.207750D-01
  0.110000D+03  0.807269D-01
  0.355700D+02  0.233074D+00
  0.125400D+02  0.433501D+00
  0.464400D+01  0.347472D+00
  0.129300D+01  0.412620D-01
  0.511800D+00 -0.850799D-02
  0.178700D+00  0.238400D-02
   s    10 1.00
  0.114200D+05 -0.115000D-03
  0.171200D+04 -0.895000D-03
  0.389300D+03 -0.462400D-02
  0.110000D+03 -0.185280D-01
  0.355700D+02 -0.573390D-01
  0.125400D+02 -0.132076D+00
  0.464400D+01 -0.172510D+00
  0.129300D+01  0.151814D+00
  0.511800D+00  0.599944D+00
  0.178700D+00  0.387462D+00
   s     1 1.00
  0.129300D+01  0.100000D+01
   s     1 1.00
  0.178700D+00  0.100000D+01
   p     5 1.00
  0.266300D+02  0.146700D-01
  0.594800D+01  0.917640D-01
  0.174200D+01  0.298683D+00
  0.555000D+00  0.498487D+00
  0.172500D+00  0.337023D+00
   p     1 1.00
  0.174200D+01  0.100000D+01
   p     1 1.00
  0.555000D+00  0.100000D+01
   d     1 1.00
  0.165400D+01  0.100000D+01
   d     1 1.00
  0.469000D+00  0.100000D+01
   f     1 1.00
  0.109300D+01  0.100000D+01
  
  2  0
   s    10 1.00
  0.823600D+04  0.531000D-03
  0.123500D+04  0.410800D-02
  0.280800D+03  0.210870D-01
  0.792700D+02  0.818530D-01
  0.255900D+02  0.234817D+00
  0.899700D+01  0.434401D+00
  0.331900D+01  0.346129D+00
  0.905900D+00  0.393780D-01
  0.364300D+00 -0.898300D-02
  0.128500D+00  0.238500D-02
   s    10 1.00
  0.823600D+04 -0.113000D-03
  0.123500D+04 -0.878000D-03
  0.280800D+03 -0.454000D-02
  0.792700D+02 -0.181330D-01
  0.255900D+02 -0.557600D-01
  0.899700D+01 -0.126895D+00
  0.331900D+01 -0.170352D+00
  0.905900D+00  0.140382D+00
  0.364300D+00  0.598684D+00
  0.128500D+00  0.395389D+00
   s     1 1.00
  0.905900D+00  0.100000D+01
   s     1 1.00
  0.364300D+00  0.100000D+01
   p     5 1.00
  0.187100D+02  0.140310D-01
  0.413300D+01  0.868660D-01
  0.120000D+01  0.290216D+00
  0.382700D+00  0.501008D+00
  0.120900D+00  0.343406D+00
   p     1 1.00
  0.382700D+00  0.100000D+01
   p     1 1.00
  0.120900D+00  0.100000D+01
   d     1 1.00
  0.109700D+01  0.100000D+01
   d     1 1.00
  0.318000D+00  0.100000D+01
   f     1 1.00
  0.761000D+00  0.100000D+01
  
  3  0
   s    10 1.00
  0.823600D+04  0.531000D-03
  0.123500D+04  0.410800D-02
  0.280800D+03  0.210870D-01
  0.792700D+02  0.818530D-01
  0.255900D+02  0.234817D+00
  0.899700D+01  0.434401D+00
  0.331900D+01  0.346129D+00
  0.905900D+00  0.393780D-01
  0.364300D+00 -0.898300D-02
  0.128500D+00  0.238500D-02
   s    10 1.00
  0.823600D+04 -0.113000D-03
  0.123500D+04 -0.878000D-03
  0.280800D+03 -0.454000D-02
  0.792700D+02 -0.181330D-01
  0.255900D+02 -0.557600D-01
  0.899700D+01 -0.126895D+00
  0.331900D+01 -0.170352D+00
  0.905900D+00  0.140382D+00
  0.364300D+00  0.598684D+00
  0.128500D+00  0.395389D+00
   s     1 1.00
  0.905900D+00  0.100000D+01
   s     1 1.00
  0.364300D+00  0.100000D+01
   p     5 1.00
  0.187100D+02  0.140310D-01
  0.413300D+01  0.868660D-01
  0.120000D+01  0.290216D+00
  0.382700D+00  0.501008D+00
  0.120900D+00  0.343406D+00
   p     1 1.00
  0.382700D+00  0.100000D+01
   p     1 1.00
  0.120900D+00  0.100000D+01
   d     1 1.00
  0.109700D+01  0.100000D+01
   d     1 1.00
  0.318000D+00  0.100000D+01
   f     1 1.00
  0.761000D+00  0.100000D+01
  
  4  0
   s    10 1.00
  0.823600D+04  0.531000D-03
  0.123500D+04  0.410800D-02
  0.280800D+03  0.210870D-01
  0.792700D+02  0.818530D-01
  0.255900D+02  0.234817D+00
  0.899700D+01  0.434401D+00
  0.331900D+01  0.346129D+00
  0.905900D+00  0.393780D-01
  0.364300D+00 -0.898300D-02
  0.128500D+00  0.238500D-02
   s    10 1.00
  0.823600D+04 -0.113000D-03
  0.123500D+04 -0.878000D-03
  0.280800D+03 -0.454000D-02
  0.792700D+02 -0.181330D-01
  0.255900D+02 -0.557600D-01
  0.899700D+01 -0.126895D+00
  0.331900D+01 -0.170352D+00
  0.905900D+00  0.140382D+00
  0.364300D+00  0.598684D+00
  0.128500D+00  0.395389D+00
   s     1 1.00
  0.905900D+00  0.100000D+01
   s     1 1.00
  0.364300D+00  0.100000D+01
   p     5 1.00
  0.187100D+02  0.140310D-01
  0.413300D+01  0.868660D-01
  0.120000D+01  0.290216D+00
  0.382700D+00  0.501008D+00
  0.120900D+00  0.343406D+00
   p     1 1.00
  0.382700D+00  0.100000D+01
   p     1 1.00
  0.120900D+00  0.100000D+01
   d     1 1.00
  0.109700D+01  0.100000D+01
   d     1 1.00
  0.318000D+00  0.100000D+01
   f     1 1.00
  0.761000D+00  0.100000D+01
  
  5  0
   s    10 1.00
  0.823600D+04  0.531000D-03
  0.123500D+04  0.410800D-02
  0.280800D+03  0.210870D-01
  0.792700D+02  0.818530D-01
  0.255900D+02  0.234817D+00
  0.899700D+01  0.434401D+00
  0.331900D+01  0.346129D+00
  0.905900D+00  0.393780D-01
  0.364300D+00 -0.898300D-02
  0.128500D+00  0.238500D-02
   s    10 1.00
  0.823600D+04 -0.113000D-03
  0.123500D+04 -0.878000D-03
  0.280800D+03 -0.454000D-02
  0.792700D+02 -0.181330D-01
  0.255900D+02 -0.557600D-01
  0.899700D+01 -0.126895D+00
  0.331900D+01 -0.170352D+00
  0.905900D+00  0.140382D+00
  0.364300D+00  0.598684D+00
  0.128500D+00  0.395389D+00
   s     1 1.00
  0.905900D+00  0.100000D+01
   s     1 1.00
  0.364300D+00  0.100000D+01
   p     5 1.00
  0.187100D+02  0.140310D-01
  0.413300D+01  0.868660D-01
  0.120000D+01  0.290216D+00
  0.382700D+00  0.501008D+00
  0.120900D+00  0.343406D+00
   p     1 1.00
  0.382700D+00  0.100000D+01
   p     1 1.00
  0.120900D+00  0.100000D+01
   d     1 1.00
  0.109700D+01  0.100000D+01
   d     1 1.00
  0.318000D+00  0.100000D+01
   f     1 1.00
  0.761000D+00  0.100000D+01
  
  6  0
   s    10 1.00
  0.823600D+04  0.531000D-03
  0.123500D+04  0.410800D-02
  0.280800D+03  0.210870D-01
  0.792700D+02  0.818530D-01
  0.255900D+02  0.234817D+00
  0.899700D+01  0.434401D+00
  0.331900D+01  0.346129D+00
  0.905900D+00  0.393780D-01
  0.364300D+00 -0.898300D-02
  0.128500D+00  0.238500D-02
   s    10 1.00
  0.823600D+04 -0.113000D-03
  0.123500D+04 -0.878000D-03
  0.280800D+03 -0.454000D-02
  0.792700D+02 -0.181330D-01
  0.255900D+02 -0.557600D-01
  0.899700D+01 -0.126895D+00
  0.331900D+01 -0.170352D+00
  0.905900D+00  0.140382D+00
  0.364300D+00  0.598684D+00
  0.128500D+00  0.395389D+00
   s     1 1.00
  0.905900D+00  0.100000D+01
   s     1 1.00
  0.364300D+00  0.100000D+01
   p     5 1.00
  0.187100D+02  0.140310D-01
  0.413300D+01  0.868660D-01
  0.120000D+01  0.290216D+00
  0.382700D+00  0.501008D+00
  0.120900D+00  0.343406D+00
   p     1 1.00
  0.382700D+00  0.100000D+01
   p     1 1.00
  0.120900D+00  0.100000D+01
   d     1 1.00
  0.109700D+01  0.100000D+01
   d     1 1.00
  0.318000D+00  0.100000D+01
   f     1 1.00
  0.761000D+00  0.100000D+01
  
  7  0
   s    10 1.00
  0.823600D+04  0.531000D-03
  0.123500D+04  0.410800D-02
  0.280800D+03  0.210870D-01
  0.792700D+02  0.818530D-01
  0.255900D+02  0.234817D+00
  0.899700D+01  0.434401D+00
  0.331900D+01  0.346129D+00
  0.905900D+00  0.393780D-01
  0.364300D+00 -0.898300D-02
  0.128500D+00  0.238500D-02
   s    10 1.00
  0.823600D+04 -0.113000D-03
  0.123500D+04 -0.878000D-03
  0.280800D+03 -0.454000D-02
  0.792700D+02 -0.181330D-01
  0.255900D+02 -0.557600D-01
  0.899700D+01 -0.126895D+00
  0.331900D+01 -0.170352D+00
  0.905900D+00  0.140382D+00
  0.364300D+00  0.598684D+00
  0.128500D+00  0.395389D+00
   s     1 1.00
  0.905900D+00  0.100000D+01
   s     1 1.00
  0.364300D+00  0.100000D+01
   p     5 1.00
  0.187100D+02  0.140310D-01
  0.413300D+01  0.868660D-01
  0.120000D+01  0.290216D+00
  0.382700D+00  0.501008D+00
  0.120900D+00  0.343406D+00
   p     1 1.00
  0.382700D+00  0.100000D+01
   p     1 1.00
  0.120900D+00  0.100000D+01
   d     1 1.00
  0.109700D+01  0.100000D+01
   d     1 1.00
  0.318000D+00  0.100000D+01
   f     1 1.00
  0.761000D+00  0.100000D+01
  
  8  0
   s     4 1.00
  0.130100D+02  0.196850D-01
  0.196200D+01  0.137977D+00
  0.444600D+00  0.478148D+00
  0.122000D+00  0.501240D+00
   s     1 1.00
  0.122000D+00  0.100000D+01
   p     1 1.00
  0.727000D+00  0.100000D+01
  
  9  0
   s     4 1.00
  0.130100D+02  0.196850D-01
  0.196200D+01  0.137977D+00
  0.444600D+00  0.478148D+00
  0.122000D+00  0.501240D+00
   s     1 1.00
  0.122000D+00  0.100000D+01
   p     1 1.00
  0.727000D+00  0.100000D+01
  
 10  0
   s     4 1.00
  0.130100D+02  0.196850D-01
  0.196200D+01  0.137977D+00
  0.444600D+00  0.478148D+00
  0.122000D+00  0.501240D+00
   s     1 1.00
  0.122000D+00  0.100000D+01
   p     1 1.00
  0.727000D+00  0.100000D+01
  
 11  0
   s     4 1.00
  0.130100D+02  0.196850D-01
  0.196200D+01  0.137977D+00
  0.444600D+00  0.478148D+00
  0.122000D+00  0.501240D+00
   s     1 1.00
  0.122000D+00  0.100000D+01
   p     1 1.00
  0.727000D+00  0.100000D+01
  
 12  0
   s     4 1.00
  0.130100D+02  0.196850D-01
  0.196200D+01  0.137977D+00
  0.444600D+00  0.478148D+00
  0.122000D+00  0.501240D+00
   s     1 1.00
  0.122000D+00  0.100000D+01
   p     1 1.00
  0.727000D+00  0.100000D+01
  
 13  0
   s     4 1.00
  0.130100D+02  0.196850D-01
  0.196200D+01  0.137977D+00
  0.444600D+00  0.478148D+00
  0.122000D+00  0.501240D+00
   s     1 1.00
  0.122000D+00  0.100000D+01
   p     1 1.00
  0.727000D+00  0.100000D+01
  
 14  0
   s     4 1.00
  0.130100D+02  0.196850D-01
  0.196200D+01  0.137977D+00
  0.444600D+00  0.478148D+00
  0.122000D+00  0.501240D+00
   s     1 1.00
  0.122000D+00  0.100000D+01
   p     1 1.00
  0.727000D+00  0.100000D+01
  
[MO]
 Sym= __1_A__
 Ene=   1.00000000000000     
 Spin= Alpha
 Occup=    1.00000000000000     
                     1  5.632215510725712E-005
                     2  0.997852869573980     
                     3  1.065425098018289E-002
                     4  2.259148655782999E-003
                     5  9.439789070333582E-004
                     6 -1.292636186090829E-011
                     7 -2.906873766923802E-004
                     8  4.287813230478197E-003
                     9  5.364110865726214E-012
                    10 -1.983086519294911E-004
                    11 -1.808966642073205E-004
                    12  7.881181079969335E-012
                    13 -1.885782781316568E-004
                    14 -8.534112133934173E-005
                    15  2.593582521293175E-004
                    16 -8.931965588138015E-013
                    17  1.326072136264743E-004
                    18 -2.383726870127932E-004
                    19 -4.447056545384827E-013
                    20  1.683094029964552E-004
                    21 -1.909734300360139E-012
                    22  1.099414981664545E-004
                    23  5.327363386242836E-004
                    24  2.461595984517381E-013
                    25 -2.595449142017991E-004
                    26  5.774226208500261E-013
                    27 -2.623255011916317E-005
                    28  1.944296384487007E-004
                    29 -1.047069589169764E-012
                    30  1.831129631189761E-012
                    31  6.580802593388119E-005
                    32 -3.824283178022569E-004
                    33  2.821274152094910E-003
                    34  1.623033901032856E-004
                    35 -2.692693690034117E-004
                    36 -5.572972674639557E-012
                    37  9.388062110133318E-005
                    38 -7.404743684514750E-003
                    39  3.100881371326271E-012
                    40 -3.447128773345216E-005
                    41  3.928198373413485E-004
                    42  1.160528957731887E-011
                    43  1.747956291543366E-004
                    44  4.119839957915503E-003
                    45  3.572236486227738E-004
                    46  2.909899106415230E-013
                    47  1.518699107430520E-005
                    48  1.426201804865793E-004
                    49  1.060059283731681E-012
                    50  2.786230711944601E-005
                    51 -3.420900548126802E-012
                    52 -1.090600118639398E-005
                    53 -4.669283123052506E-004
                    54  1.726006998591976E-012
                    55 -1.270710329671296E-004
                    56 -4.139872065644188E-012
                    57 -6.299802848650097E-006
                    58  9.592617248076133E-005
                    59  1.702220683007473E-013
                    60 -3.715387666900628E-013
                    61 -3.595097187199551E-006
                    62 -2.162031864175344E-004
                    63 -1.823819651171723E-003
                    64  6.075917847734296E-005
                    65  5.699762842249813E-004
                    66 -1.182743653821847E-011
                    67 -9.180185313012275E-004
                    68  1.150663360206376E-003
                    69  1.227280065149278E-011
                    70 -3.942832570259184E-005
                    71  6.180317228528669E-004
                    72 -7.993060155809878E-012
                    73 -3.477383503594869E-004
                    74 -2.473831291477322E-004
                    75  9.669837120416384E-005
                    76  1.551467956899886E-012
                    77 -1.062524807559838E-005
                    78  4.411161486378762E-005
                    79 -3.161057248565105E-013
                    80 -3.374049390955222E-005
                    81 -9.896236243561783E-013
                    82  2.326573811621430E-004
                    83 -3.845710055252776E-005
                    84 -1.353696880810397E-012
                    85 -9.516674804016534E-005
                    86 -7.123669227231969E-013
                    87 -3.061193693190972E-005
                    88  2.192037950101048E-005
                    89  3.881416117170473E-014
                    90  1.936504531618005E-012
                    91  1.232399676979075E-005
                    92 -1.992968018151742E-004
                    93 -1.633459603444436E-003
                    94  5.545660109174851E-005
                    95  5.587611282696783E-004
                    96  4.921068554152597E-012
                    97  8.215472564753810E-004
                    98  1.026225265181974E-003
                    99 -7.784662641531924E-012
                   100  9.420574271668990E-006
                   101  5.839807033626033E-004
                   102 -8.242460865589412E-012
                   103  5.549365472387005E-004
                   104  1.256185534090362E-004
                   105  9.684483731097150E-005
                   106  1.489062398434927E-012
                   107  1.595533337058976E-005
                   108  3.875002974700108E-005
                   109  3.219137542097552E-012
                   110 -7.908993790434956E-005
                   111 -4.210357600142859E-012
                   112 -2.435573259030472E-004
                   113 -4.829457575797190E-005
                   114 -3.370520826569152E-012
                   115 -9.717952132099738E-005
                   116 -7.072342709755044E-013
                   117  3.369211078004553E-005
                   118  2.118141276515056E-005
                   119 -2.659673853169718E-013
                   120  1.588724273572763E-012
                   121 -1.217241050922630E-005
                   122 -1.451367305026279E-004
                   123  6.322953348661804E-005
                   124  1.165745354825340E-004
                   125  9.289521178046310E-005
                   126 -2.148981346327854E-011
                   127  5.118494433665116E-005
                   128 -8.674194894302236E-004
                   129  1.865803183840253E-011
                   130 -6.027653075245574E-006
                   131  3.500493426986542E-004
                   132  8.314276394121777E-012
                   133 -2.465179297287998E-004
                   134  4.991463070329375E-004
                   135 -1.790922245263531E-005
                   136  1.577420695062047E-012
                   137  2.753791575223559E-006
                   138  2.317621769300282E-006
                   139 -2.917695433955833E-012
                   140 -1.710631639744165E-004
                   141 -2.577434626314212E-012
                   142  1.701550692771261E-004
                   143  1.922556628854480E-005
                   144  2.478728625780007E-012
                   145 -3.927587245037597E-005
                   146 -1.193199153093736E-012
                   147  1.950106277732549E-006
                   148 -8.299475308203980E-006
                   149  1.013977594041021E-012
                   150  1.767403767328213E-013
                   151 -2.621894088667892E-006
                   152 -1.498572181660847E-004
                   153  6.365679057772716E-006
                   154  1.027609527443206E-004
                   155  1.788109082821291E-004
                   156  2.521500225897015E-012
                   157 -4.188227150543261E-005
                   158 -8.146526481796226E-004
                   159 -2.774311158737852E-013
                   160 -1.061953701559069E-005
                   161  3.288346629639421E-004
                   162  7.779964131429776E-012
                   163  6.014284062123464E-005
                   164  8.343280290848987E-004
                   165 -1.566335715458744E-005
                   166  2.559091911060549E-012
                   167 -9.713553722802777E-008
                   168  1.813162916866622E-006
                   169  1.860444219000065E-012
                   170 -1.805911757456625E-004
                   171 -5.364811237298123E-012
                   172 -1.895919615040108E-004
                   173  6.906516072924080E-006
                   174 -8.684528897965601E-012
                   175 -3.826425689030041E-005
                   176  1.425178171599173E-012
                   177 -1.894934593100468E-007
                   178 -1.078971652052569E-005
                   179 -3.969349211570467E-012
                   180 -2.144982756866198E-012
                   181  4.024541363109783E-006
                   182 -1.231331809902815E-004
                   183 -3.309597390548027E-004
                   184  3.108609611160733E-005
                   185  1.496614040770027E-004
                   186  4.851418989606497E-012
                   187  3.738691542119056E-007
                   188 -3.751821119250661E-005
                   189 -7.684933896026734E-012
                   190 -1.935207783176658E-005
                   191  8.638786628487015E-006
                   192 -6.621829854620903E-012
                   193 -1.972212461668855E-004
                   194  8.611993155093648E-005
                   195  2.010923837842622E-005
                   196 -3.884349017253626E-012
                   197  9.807658216851514E-007
                   198  9.683043528388259E-006
                   199  1.634140773565024E-012
                   200  6.192172149088308E-005
                   201  6.889549588732979E-012
                   202  1.702078970897180E-005
                   203  4.741549994621624E-005
                   204 -3.332725354462014E-012
                   205 -1.258774261407404E-005
                   206 -1.791521869367773E-012
                   207 -1.928768018416591E-006
                   208  4.792343957330884E-006
                   209  5.058739425966382E-013
                   210 -1.723094092863379E-012
                   211  5.800228227964885E-007
                   212  5.215684939613950E-003
                   213 -3.146637525620100E-003
                   214 -6.440403500415795E-013
                   215  3.571511711248701E-004
                   216  3.350315896991049E-004
                   217  4.041658099899617E-003
                   218 -2.389903402078136E-003
                   219  2.265422495006188E-012
                   220 -4.994190632757032E-004
                   221  3.790721908745600E-004
                   222 -7.374583560503011E-004
                   223  1.077218465375904E-005
                   224 -1.894586976537516E-012
                   225 -2.185523301118934E-005
                   226 -4.641201420154028E-005
                   227 -7.124121936276850E-004
                   228 -5.153937791920100E-005
                   229  1.768622148101250E-012
                   230  1.866355211168862E-005
                   231 -5.575477905477919E-005
                   232 -2.573273876744587E-004
                   233 -3.771619783955300E-004
                   234  1.400738197596174E-013
                   235 -6.284141321860877E-006
                   236  7.271194989130148E-006
                   237 -2.311704463569706E-004
                   238 -3.888384535436513E-004
                   239  5.343703426478209E-012
                   240  7.424162018285297E-006
                   241  7.612030324503773E-006
                   242  7.504891982499727E-005
                   243 -1.391141611319726E-004
                   244  2.836978111871511E-013
                   245  8.370275103578311E-007
                   246  1.338816956098853E-005
 Sym= __2_A__
 Ene=   2.00000000000000     
 Spin= Alpha
 Occup=    1.00000000000000     
                     1 -4.360291930870434E-005
                     2 -2.040834480990594E-004
                     3  2.107155371204719E-003
                     4  9.936670976260921E-005
                     5  1.319068799644756E-003
                     6  5.854371349186672E-012
                     7  7.351623656519211E-005
                     8  3.003485616320197E-003
                     9 -9.628265802136589E-012
                    10  1.209964052545408E-005
                    11 -5.085883875186643E-005
                    12  7.029424597536980E-012
                    13 -2.187444268875163E-005
                    14 -5.262966021501517E-004
                    15  3.972805677543906E-005
                    16  5.960915876654825E-013
                    17  4.117034375765288E-006
                    18  6.433129260671959E-005
                    19  3.323327194710771E-013
                    20 -3.253042654376393E-004
                    21  4.924265374248040E-012
                    22 -6.051150813244615E-005
                    23 -3.596805823982698E-004
                    24 -3.106565489981644E-012
                    25  1.774370294229863E-004
                    26 -1.361169765054394E-012
                    27  1.525141018433497E-005
                    28 -2.751890295755328E-006
                    29  1.700568288744151E-012
                    30 -1.822562442929099E-012
                    31  3.742087179030827E-006
                    32   1.00105993532920     
                    33  9.266791515958149E-003
                    34  2.638852818044121E-003
                    35 -7.751939676268881E-003
                    36  2.321896002476602E-011
                    37 -2.418827252709909E-006
                    38 -4.090625822599240E-003
                    39 -2.369436358273111E-011
                    40  1.292272761138330E-005
                    41  1.003003874819737E-003
                    42 -1.463441733478800E-011
                    43 -5.775185635920821E-005
                    44  4.487205692753621E-003
                    45  4.724740643669535E-004
                    46  1.832759703073145E-012
                    47  4.579164726086042E-006
                    48 -4.322732120789650E-004
                    49 -3.262045183563622E-012
                    50  5.837473371331125E-004
                    51 -4.083548140180423E-012
                    52 -5.719162453822671E-005
                    53  9.457099930890384E-004
                    54  2.905452729682778E-012
                    55  3.843062516008721E-004
                    56 -8.447140589089591E-014
                    57  2.897532317403729E-006
                    58 -2.083320738756370E-004
                    59 -4.273512707360994E-012
                    60 -1.098764251722998E-012
                    61 -4.101479395255123E-007
                    62  7.206476046390231E-003
                    63 -2.061669595197835E-003
                    64 -2.769403827563479E-004
                    65  3.040574512052174E-003
                    66 -5.243896991006851E-012
                    67  1.071335291387849E-004
                    68 -2.472325455152835E-005
                    69  7.536844377437264E-012
                    70  5.839260313960920E-004
                    71  1.902596935636960E-005
                    72  1.687597043528738E-011
                    73 -2.143629974052803E-003
                    74  1.255467867183621E-004
                    75 -1.642922189997431E-005
                    76 -6.059091524193025E-015
                    77  1.464051666365127E-005
                    78  2.827411984422058E-005
                    79  3.133305156184995E-012
                    80  7.822002240930235E-004
                    81  2.572024920656519E-012
                    82 -4.314289630181746E-004
                    83 -4.667745273902806E-006
                    84  3.648995547511638E-013
                    85  7.361617535011403E-005
                    86  2.600305972564870E-012
                    87  4.764417830532297E-005
                    88 -1.262682185094479E-004
                    89  1.273970101720876E-012
                    90  6.396249522136249E-013
                    91  4.957750158846213E-005
                    92  7.184544413099914E-003
                    93 -2.045988614196414E-003
                    94 -2.788767171951214E-004
                    95  3.065439860900082E-003
                    96 -1.793567328776358E-012
                    97 -1.067844652163848E-004
                    98 -2.849874356568522E-005
                    99  3.589933108414574E-012
                   100 -6.189289528602677E-004
                   101  1.955088938094537E-005
                   102  3.233820754571963E-012
                   103  2.090282828483462E-003
                   104  4.919398404689618E-005
                   105 -1.515925066278648E-005
                   106 -2.125359059104051E-012
                   107 -1.267357430909071E-005
                   108  2.800019511112632E-005
                   109  5.729447117480721E-013
                   110  7.534096973381468E-004
                   111  6.736298066888817E-012
                   112  4.246138009411779E-004
                   113 -1.589637970742960E-005
                   114 -8.421513870471389E-012
                   115  7.233216801121292E-005
                   116 -7.186369224335469E-013
                   117 -4.507521559204919E-005
                   118 -1.272627100990816E-004
                   119  3.289737470213201E-012
                   120  2.153251460628429E-012
                   121 -5.090956533353909E-005
                   122 -2.367311614110701E-004
                   123 -7.704181478350418E-004
                   124  2.245472890445585E-004
                   125 -1.076745859656467E-004
                   126  7.509091310846318E-012
                   127 -2.094560884696690E-005
                   128 -2.435499791048733E-004
                   129 -6.064577231728389E-012
                   130  1.065194875501750E-006
                   131  5.425679503652619E-004
                   132 -1.083505082801725E-011
                   133  3.498818780703887E-004
                   134  7.934738498076852E-004
                   135 -1.396740920453592E-005
                   136 -3.096329277359045E-012
                   137  5.154345034078390E-005
                   138  1.364230923723533E-005
                   139  2.565127157770393E-012
                   140 -2.947438198141658E-004
                   141  1.121045805054720E-011
                   142 -2.207870478330813E-004
                   143 -1.519697362951405E-005
                   144 -6.247197119746916E-012
                   145  1.445185272216689E-006
                   146 -3.320036852788153E-013
                   147 -4.103881898842555E-005
                   148 -3.988470677314400E-005
                   149 -4.064170564552825E-012
                   150 -3.454640830723725E-013
                   151 -5.726899419981182E-006
                   152 -2.354988972085992E-004
                   153 -7.582053647501550E-004
                   154  2.253073552687634E-004
                   155 -1.108236020108153E-004
                   156  8.812733225798903E-012
                   157  1.834648121402915E-005
                   158 -2.445897760159545E-004
                   159 -7.665282467382126E-012
                   160  1.420134702749645E-005