[Molden Format]
[Atoms] AU
  N     1    7     0.0000000000    0.0000000000   -4.2907334100        
  C     2    6     0.0000000000    0.0000000000   -1.7772236300        
  C     3    6     0.0000000000   -2.3389203600   -0.4111016300        
  C     4    6     0.0000000000    2.3389203600   -0.4111016300        
  C     5    6     0.0000000000   -2.2998668500    2.1639215300        
  C     6    6     0.0000000000    2.2998668500    2.1639215300        
  C     7    6     0.0000000000    0.0000000000    3.4755251800        
  H     8    1     0.0000000000   -1.4474705400   -5.1837012500        
  H     9    1     0.0000000000    1.6528040300   -5.3103747800        
  H    10    1     0.0000000000   -4.0745407300   -1.4447408500        
  H    11    1     0.0000000000    4.0745407300   -1.4447408500        
  H    12    1     0.0000000000   -4.0420632100    3.1963889500        
  H    13    1     0.0000000000    4.0420632100    3.1963889500        
  H    14    1     0.0000000000    0.0000000000    5.5020335600        
[5D]
[7F]
[GTO]
  1  0
   s    12 1.00
  0.114200D+05  0.172695D-04
  0.171200D+04  0.134411D-03
  0.389300D+03  0.694561D-03
  0.110000D+03  0.278531D-02
  0.355700D+02  0.863457D-02
  0.125400D+02  0.199805D-01
  0.464400D+01  0.262908D-01
  0.129300D+01 -0.243845D-01
  0.511800D+00 -0.924934D-01
  0.178700D+00 -0.339683D+00
  0.246240D-01  0.345111D+00
  0.112530D-01  0.752750D+00
   s    10 1.00
  0.114200D+05  0.523000D-03
  0.171200D+04  0.404500D-02
  0.389300D+03  0.207750D-01
  0.110000D+03  0.807269D-01
  0.355700D+02  0.233074D+00
  0.125400D+02  0.433501D+00
  0.464400D+01  0.347472D+00
  0.129300D+01  0.412620D-01
  0.511800D+00 -0.850799D-02
  0.178700D+00  0.238400D-02
   s    10 1.00
  0.114200D+05 -0.115000D-03
  0.171200D+04 -0.895000D-03
  0.389300D+03 -0.462400D-02
  0.110000D+03 -0.185280D-01
  0.355700D+02 -0.573390D-01
  0.125400D+02 -0.132076D+00
  0.464400D+01 -0.172510D+00
  0.129300D+01  0.151814D+00
  0.511800D+00  0.599944D+00
  0.178700D+00  0.387462D+00
   s     1 1.00
  0.129300D+01  0.100000D+01
   s     1 1.00
  0.178700D+00  0.100000D+01
   p     5 1.00
  0.266300D+02  0.146700D-01
  0.594800D+01  0.917640D-01
  0.174200D+01  0.298683D+00
  0.555000D+00  0.498487D+00
  0.172500D+00  0.337023D+00
   p     1 1.00
  0.174200D+01  0.100000D+01
   p     1 1.00
  0.555000D+00  0.100000D+01
   d     1 1.00
  0.165400D+01  0.100000D+01
   d     1 1.00
  0.469000D+00  0.100000D+01
   f     1 1.00
  0.109300D+01  0.100000D+01
  
  2  0
   s    10 1.00
  0.823600D+04  0.531000D-03
  0.123500D+04  0.410800D-02
  0.280800D+03  0.210870D-01
  0.792700D+02  0.818530D-01
  0.255900D+02  0.234817D+00
  0.899700D+01  0.434401D+00
  0.331900D+01  0.346129D+00
  0.905900D+00  0.393780D-01
  0.364300D+00 -0.898300D-02
  0.128500D+00  0.238500D-02
   s    10 1.00
  0.823600D+04 -0.113000D-03
  0.123500D+04 -0.878000D-03
  0.280800D+03 -0.454000D-02
  0.792700D+02 -0.181330D-01
  0.255900D+02 -0.557600D-01
  0.899700D+01 -0.126895D+00
  0.331900D+01 -0.170352D+00
  0.905900D+00  0.140382D+00
  0.364300D+00  0.598684D+00
  0.128500D+00  0.395389D+00
   s     1 1.00
  0.905900D+00  0.100000D+01
   s     1 1.00
  0.364300D+00  0.100000D+01
   p     5 1.00
  0.187100D+02  0.140310D-01
  0.413300D+01  0.868660D-01
  0.120000D+01  0.290216D+00
  0.382700D+00  0.501008D+00
  0.120900D+00  0.343406D+00
   p     1 1.00
  0.382700D+00  0.100000D+01
   p     1 1.00
  0.120900D+00  0.100000D+01
   d     1 1.00
  0.109700D+01  0.100000D+01
   d     1 1.00
  0.318000D+00  0.100000D+01
   f     1 1.00
  0.761000D+00  0.100000D+01
  
  3  0
   s    10 1.00
  0.823600D+04  0.531000D-03
  0.123500D+04  0.410800D-02
  0.280800D+03  0.210870D-01
  0.792700D+02  0.818530D-01
  0.255900D+02  0.234817D+00
  0.899700D+01  0.434401D+00
  0.331900D+01  0.346129D+00
  0.905900D+00  0.393780D-01
  0.364300D+00 -0.898300D-02
  0.128500D+00  0.238500D-02
   s    10 1.00
  0.823600D+04 -0.113000D-03
  0.123500D+04 -0.878000D-03
  0.280800D+03 -0.454000D-02
  0.792700D+02 -0.181330D-01
  0.255900D+02 -0.557600D-01
  0.899700D+01 -0.126895D+00
  0.331900D+01 -0.170352D+00
  0.905900D+00  0.140382D+00
  0.364300D+00  0.598684D+00
  0.128500D+00  0.395389D+00
   s     1 1.00
  0.905900D+00  0.100000D+01
   s     1 1.00
  0.364300D+00  0.100000D+01
   p     5 1.00
  0.187100D+02  0.140310D-01
  0.413300D+01  0.868660D-01
  0.120000D+01  0.290216D+00
  0.382700D+00  0.501008D+00
  0.120900D+00  0.343406D+00
   p     1 1.00
  0.382700D+00  0.100000D+01
   p     1 1.00
  0.120900D+00  0.100000D+01
   d     1 1.00
  0.109700D+01  0.100000D+01
   d     1 1.00
  0.318000D+00  0.100000D+01
   f     1 1.00
  0.761000D+00  0.100000D+01
  
  4  0
   s    10 1.00
  0.823600D+04  0.531000D-03
  0.123500D+04  0.410800D-02
  0.280800D+03  0.210870D-01
  0.792700D+02  0.818530D-01
  0.255900D+02  0.234817D+00
  0.899700D+01  0.434401D+00
  0.331900D+01  0.346129D+00
  0.905900D+00  0.393780D-01
  0.364300D+00 -0.898300D-02
  0.128500D+00  0.238500D-02
   s    10 1.00
  0.823600D+04 -0.113000D-03
  0.123500D+04 -0.878000D-03
  0.280800D+03 -0.454000D-02
  0.792700D+02 -0.181330D-01
  0.255900D+02 -0.557600D-01
  0.899700D+01 -0.126895D+00
  0.331900D+01 -0.170352D+00
  0.905900D+00  0.140382D+00
  0.364300D+00  0.598684D+00
  0.128500D+00  0.395389D+00
   s     1 1.00
  0.905900D+00  0.100000D+01
   s     1 1.00
  0.364300D+00  0.100000D+01
   p     5 1.00
  0.187100D+02  0.140310D-01
  0.413300D+01  0.868660D-01
  0.120000D+01  0.290216D+00
  0.382700D+00  0.501008D+00
  0.120900D+00  0.343406D+00
   p     1 1.00
  0.382700D+00  0.100000D+01
   p     1 1.00
  0.120900D+00  0.100000D+01
   d     1 1.00
  0.109700D+01  0.100000D+01
   d     1 1.00
  0.318000D+00  0.100000D+01
   f     1 1.00
  0.761000D+00  0.100000D+01
  
  5  0
   s    10 1.00
  0.823600D+04  0.531000D-03
  0.123500D+04  0.410800D-02
  0.280800D+03  0.210870D-01
  0.792700D+02  0.818530D-01
  0.255900D+02  0.234817D+00
  0.899700D+01  0.434401D+00
  0.331900D+01  0.346129D+00
  0.905900D+00  0.393780D-01
  0.364300D+00 -0.898300D-02
  0.128500D+00  0.238500D-02
   s    10 1.00
  0.823600D+04 -0.113000D-03
  0.123500D+04 -0.878000D-03
  0.280800D+03 -0.454000D-02
  0.792700D+02 -0.181330D-01
  0.255900D+02 -0.557600D-01
  0.899700D+01 -0.126895D+00
  0.331900D+01 -0.170352D+00
  0.905900D+00  0.140382D+00
  0.364300D+00  0.598684D+00
  0.128500D+00  0.395389D+00
   s     1 1.00
  0.905900D+00  0.100000D+01
   s     1 1.00
  0.364300D+00  0.100000D+01
   p     5 1.00
  0.187100D+02  0.140310D-01
  0.413300D+01  0.868660D-01
  0.120000D+01  0.290216D+00
  0.382700D+00  0.501008D+00
  0.120900D+00  0.343406D+00
   p     1 1.00
  0.382700D+00  0.100000D+01
   p     1 1.00
  0.120900D+00  0.100000D+01
   d     1 1.00
  0.109700D+01  0.100000D+01
   d     1 1.00
  0.318000D+00  0.100000D+01
   f     1 1.00
  0.761000D+00  0.100000D+01
  
  6  0
   s    10 1.00
  0.823600D+04  0.531000D-03
  0.123500D+04  0.410800D-02
  0.280800D+03  0.210870D-01
  0.792700D+02  0.818530D-01
  0.255900D+02  0.234817D+00
  0.899700D+01  0.434401D+00
  0.331900D+01  0.346129D+00
  0.905900D+00  0.393780D-01
  0.364300D+00 -0.898300D-02
  0.128500D+00  0.238500D-02
   s    10 1.00
  0.823600D+04 -0.113000D-03
  0.123500D+04 -0.878000D-03
  0.280800D+03 -0.454000D-02
  0.792700D+02 -0.181330D-01
  0.255900D+02 -0.557600D-01
  0.899700D+01 -0.126895D+00
  0.331900D+01 -0.170352D+00
  0.905900D+00  0.140382D+00
  0.364300D+00  0.598684D+00
  0.128500D+00  0.395389D+00
   s     1 1.00
  0.905900D+00  0.100000D+01
   s     1 1.00
  0.364300D+00  0.100000D+01
   p     5 1.00
  0.187100D+02  0.140310D-01
  0.413300D+01  0.868660D-01
  0.120000D+01  0.290216D+00
  0.382700D+00  0.501008D+00
  0.120900D+00  0.343406D+00
   p     1 1.00
  0.382700D+00  0.100000D+01
   p     1 1.00
  0.120900D+00  0.100000D+01
   d     1 1.00
  0.109700D+01  0.100000D+01
   d     1 1.00
  0.318000D+00  0.100000D+01
   f     1 1.00
  0.761000D+00  0.100000D+01
  
  7  0
   s    10 1.00
  0.823600D+04  0.531000D-03
  0.123500D+04  0.410800D-02
  0.280800D+03  0.210870D-01
  0.792700D+02  0.818530D-01
  0.255900D+02  0.234817D+00
  0.899700D+01  0.434401D+00
  0.331900D+01  0.346129D+00
  0.905900D+00  0.393780D-01
  0.364300D+00 -0.898300D-02
  0.128500D+00  0.238500D-02
   s    10 1.00
  0.823600D+04 -0.113000D-03
  0.123500D+04 -0.878000D-03
  0.280800D+03 -0.454000D-02
  0.792700D+02 -0.181330D-01
  0.255900D+02 -0.557600D-01
  0.899700D+01 -0.126895D+00
  0.331900D+01 -0.170352D+00
  0.905900D+00  0.140382D+00
  0.364300D+00  0.598684D+00
  0.128500D+00  0.395389D+00
   s     1 1.00
  0.905900D+00  0.100000D+01
   s     1 1.00
  0.364300D+00  0.100000D+01
   p     5 1.00
  0.187100D+02  0.140310D-01
  0.413300D+01  0.868660D-01
  0.120000D+01  0.290216D+00
  0.382700D+00  0.501008D+00
  0.120900D+00  0.343406D+00
   p     1 1.00
  0.382700D+00  0.100000D+01
   p     1 1.00
  0.120900D+00  0.100000D+01
   d     1 1.00
  0.109700D+01  0.100000D+01
   d     1 1.00
  0.318000D+00  0.100000D+01
   f     1 1.00
  0.761000D+00  0.100000D+01
  
  8  0
   s     4 1.00
  0.130100D+02  0.196850D-01
  0.196200D+01  0.137977D+00
  0.444600D+00  0.478148D+00
  0.122000D+00  0.501240D+00
   s     1 1.00
  0.122000D+00  0.100000D+01
   p     1 1.00
  0.727000D+00  0.100000D+01
  
  9  0
   s     4 1.00
  0.130100D+02  0.196850D-01
  0.196200D+01  0.137977D+00
  0.444600D+00  0.478148D+00
  0.122000D+00  0.501240D+00
   s     1 1.00
  0.122000D+00  0.100000D+01
   p     1 1.00
  0.727000D+00  0.100000D+01
  
 10  0
   s     4 1.00
  0.130100D+02  0.196850D-01
  0.196200D+01  0.137977D+00
  0.444600D+00  0.478148D+00
  0.122000D+00  0.501240D+00
   s     1 1.00
  0.122000D+00  0.100000D+01
   p     1 1.00
  0.727000D+00  0.100000D+01
  
 11  0
   s     4 1.00
  0.130100D+02  0.196850D-01
  0.196200D+01  0.137977D+00
  0.444600D+00  0.478148D+00
  0.122000D+00  0.501240D+00
   s     1 1.00
  0.122000D+00  0.100000D+01
   p     1 1.00
  0.727000D+00  0.100000D+01
  
 12  0
   s     4 1.00
  0.130100D+02  0.196850D-01
  0.196200D+01  0.137977D+00
  0.444600D+00  0.478148D+00
  0.122000D+00  0.501240D+00
   s     1 1.00
  0.122000D+00  0.100000D+01
   p     1 1.00
  0.727000D+00  0.100000D+01
  
 13  0
   s     4 1.00
  0.130100D+02  0.196850D-01
  0.196200D+01  0.137977D+00
  0.444600D+00  0.478148D+00
  0.122000D+00  0.501240D+00
   s     1 1.00
  0.122000D+00  0.100000D+01
   p     1 1.00
  0.727000D+00  0.100000D+01
  
 14  0
   s     4 1.00
  0.130100D+02  0.196850D-01
  0.196200D+01  0.137977D+00
  0.444600D+00  0.478148D+00
  0.122000D+00  0.501240D+00
   s     1 1.00
  0.122000D+00  0.100000D+01
   p     1 1.00
  0.727000D+00  0.100000D+01
  
[MO]
 Sym= __1_a__
 Ene=  0.000000000000000E+000
 Spin= Alpha
 Occup=    2.00000000000000     
                     1  5.632215510725710E-005
                     2  0.997852869573980     
                     3  1.065425098018290E-002
                     4  2.259148655783000E-003
                     5  9.439789070333580E-004
                     6 -1.292636186090830E-011
                     7 -2.906873766923800E-004
                     8  4.287813230478200E-003
                     9  5.364110865726210E-012
                    10 -1.983086519294910E-004
                    11 -1.808966642073200E-004
                    12  7.881181079969330E-012
                    13 -1.885782781316570E-004
                    14 -8.534112133934170E-005
                    15  2.593582521293173E-004
                    16 -8.931965588138010E-013
                    17  1.326072136264740E-004
                    18 -2.383726870127940E-004
                    19 -4.447056545384830E-013
                    20  1.683094029964551E-004
                    21 -1.909734300360140E-012
                    22  1.099414981664540E-004
                    23  5.327363386242840E-004
                    24  2.461595984517380E-013
                    25 -2.595449142017989E-004
                    26  5.774226208500261E-013
                    27 -2.623255011916315E-005
                    28  1.944296384487008E-004
                    29 -1.047069589169760E-012
                    30  1.831129631189768E-012
                    31  6.580802593388128E-005
                    32 -3.824283178022570E-004
                    33  2.821274152094910E-003
                    34  1.623033901032860E-004
                    35 -2.692693690034120E-004
                    36 -5.572972674639560E-012
                    37  9.388062110133320E-005
                    38 -7.404743684514750E-003
                    39  3.100881371326270E-012
                    40 -3.447128773345220E-005
                    41  3.928198373413480E-004
                    42  1.160528957731890E-011
                    43  1.747956291543370E-004
                    44  4.119839957915500E-003
                    45  3.572236486227725E-004
                    46  2.909899106415230E-013
                    47  1.518699107430520E-005
                    48  1.426201804865794E-004
                    49  1.060059283731680E-012
                    50  2.786230711944600E-005
                    51 -3.420900548126800E-012
                    52 -1.090600118639400E-005
                    53 -4.669283123052500E-004
                    54  1.726006998591980E-012
                    55 -1.270710329671297E-004
                    56 -4.139872065644188E-012
                    57 -6.299802848650096E-006
                    58  9.592617248076141E-005
                    59  1.702220683007470E-013
                    60 -3.715387666900623E-013
                    61 -3.595097187199553E-006
                    62 -2.162031864175340E-004
                    63 -1.823819651171720E-003
                    64  6.075917847734300E-005
                    65  5.699762842249810E-004
                    66 -1.182743653821850E-011
                    67 -9.180185313012270E-004
                    68  1.150663360206380E-003
                    69  1.227280065149280E-011
                    70 -3.942832570259180E-005
                    71  6.180317228528670E-004
                    72 -7.993060155809879E-012
                    73 -3.477383503594870E-004
                    74 -2.473831291477320E-004
                    75  9.669837120416391E-005
                    76  1.551467956899890E-012
                    77 -1.062524807559840E-005
                    78  4.411161486378760E-005
                    79 -3.161057248565100E-013
                    80 -3.374049390955221E-005
                    81 -9.896236243561781E-013
                    82  2.326573811621430E-004
                    83 -3.845710055252780E-005
                    84 -1.353696880810400E-012
                    85 -9.516674804016542E-005
                    86 -7.123669227231969E-013
                    87 -3.061193693190970E-005
                    88  2.192037950101040E-005
                    89  3.881416117170470E-014
                    90  1.936504531618003E-012
                    91  1.232399676979074E-005
                    92 -1.992968018151740E-004
                    93 -1.633459603444440E-003
                    94  5.545660109174850E-005
                    95  5.587611282696780E-004
                    96  4.921068554152600E-012
                    97  8.215472564753810E-004
                    98  1.026225265181970E-003
                    99 -7.784662641531921E-012
                   100  9.420574271668990E-006
                   101  5.839807033626030E-004
                   102 -8.242460865589410E-012
                   103  5.549365472387010E-004
                   104  1.256185534090360E-004
                   105  9.684483731097164E-005
                   106  1.489062398434930E-012
                   107  1.595533337058980E-005
                   108  3.875002974700100E-005
                   109  3.219137542097550E-012
                   110 -7.908993790434954E-005
                   111 -4.210357600142860E-012
                   112 -2.435573259030470E-004
                   113 -4.829457575797200E-005
                   114 -3.370520826569150E-012
                   115 -9.717952132099726E-005
                   116 -7.072342709755019E-013
                   117  3.369211078004553E-005
                   118  2.118141276515060E-005
                   119 -2.659673853169720E-013
                   120  1.588724273572764E-012
                   121 -1.217241050922631E-005
                   122 -1.451367305026280E-004
                   123  6.322953348661800E-005
                   124  1.165745354825340E-004
                   125  9.289521178046310E-005
                   126 -2.148981346327850E-011
                   127  5.118494433665120E-005
                   128 -8.674194894302240E-004
                   129  1.865803183840250E-011
                   130 -6.027653075245570E-006
                   131  3.500493426986540E-004
                   132  8.314276394121780E-012
                   133 -2.465179297288000E-004
                   134  4.991463070329370E-004
                   135 -1.790922245263530E-005
                   136  1.577420695062050E-012
                   137  2.753791575223560E-006
                   138  2.317621769300280E-006
                   139 -2.917695433955830E-012
                   140 -1.710631639744164E-004
                   141 -2.577434626314210E-012
                   142  1.701550692771260E-004
                   143  1.922556628854480E-005
                   144  2.478728625780010E-012
                   145 -3.927587245037601E-005
                   146 -1.193199153093739E-012
                   147  1.950106277732551E-006
                   148 -8.299475308203980E-006
                   149  1.013977594041020E-012
                   150  1.767403767328212E-013
                   151 -2.621894088667894E-006
                   152 -1.498572181660850E-004
                   153  6.365679057772720E-006
                   154  1.027609527443210E-004
                   155  1.788109082821290E-004
                   156  2.521500225897020E-012
                   157 -4.188227150543260E-005
                   158 -8.146526481796230E-004
                   159 -2.774311158737850E-013
                   160 -1.061953701559070E-005
                   161  3.288346629639420E-004
                   162  7.779964131429781E-012
                   163  6.014284062123460E-005
                   164  8.343280290848991E-004
                   165 -1.566335715458742E-005
                   166  2.559091911060550E-012
                   167 -9.713553722802780E-008
                   168  1.813162916866622E-006
                   169  1.860444219000060E-012
                   170 -1.805911757456623E-004
                   171 -5.364811237298120E-012
                   172 -1.895919615040110E-004
                   173  6.906516072924080E-006
                   174 -8.684528897965601E-012
                   175 -3.826425689030044E-005
                   176  1.425178171599172E-012
                   177 -1.894934593100465E-007
                   178 -1.078971652052568E-005
                   179 -3.969349211570470E-012
                   180 -2.144982756866192E-012
                   181  4.024541363109783E-006
                   182 -1.231331809902820E-004
                   183 -3.309597390548030E-004
                   184  3.108609611160730E-005
                   185  1.496614040770030E-004
                   186  4.851418989606500E-012
                   187  3.738691542119060E-007
                   188 -3.751821119250660E-005
                   189 -7.684933896026729E-012
                   190 -1.935207783176660E-005
                   191  8.638786628487010E-006
                   192 -6.621829854620900E-012
                   193 -1.972212461668850E-004
                   194  8.611993155093649E-005
                   195  2.010923837842623E-005
                   196 -3.884349017253630E-012
                   197  9.807658216851510E-007
                   198  9.683043528388259E-006
                   199  1.634140773565020E-012
                   200  6.192172149088310E-005
                   201  6.889549588732980E-012
                   202  1.702078970897180E-005
                   203  4.741549994621620E-005
                   204 -3.332725354462010E-012
                   205 -1.258774261407405E-005
                   206 -1.791521869367772E-012
                   207 -1.928768018416591E-006
                   208  4.792343957330880E-006
                   209  5.058739425966380E-013
                   210 -1.723094092863374E-012
                   211  5.800228227964870E-007
                   212  5.215684939613950E-003
                   213 -3.146637525620100E-003
                   214 -6.440403500415800E-013
                   215  3.571511711248700E-004
                   216  3.350315896991050E-004
                   217  4.041658099899620E-003
                   218 -2.389903402078140E-003
                   219  2.265422495006190E-012
                   220 -4.994190632757030E-004
                   221  3.790721908745600E-004
                   222 -7.374583560503010E-004
                   223  1.077218465375900E-005
                   224 -1.894586976537520E-012
                   225 -2.185523301118930E-005
                   226 -4.641201420154030E-005
                   227 -7.124121936276850E-004
                   228 -5.153937791920100E-005
                   229  1.768622148101250E-012
                   230  1.866355211168860E-005
                   231 -5.575477905477920E-005
                   232 -2.573273876744590E-004
                   233 -3.771619783955300E-004
                   234  1.400738197596170E-013
                   235 -6.284141321860880E-006
                   236  7.271194989130150E-006
                   237 -2.311704463569710E-004
                   238 -3.888384535436510E-004
                   239  5.343703426478210E-012
                   240  7.424162018285300E-006
                   241  7.612030324503770E-006
                   242  7.504891982499730E-005
                   243 -1.391141611319730E-004
                   244  2.836978111871510E-013
                   245  8.370275103578310E-007
                   246  1.338816956098850E-005
 Sym= __2_a__
 Ene=  0.000000000000000E+000
 Spin= Alpha
 Occup=    2.00000000000000     
                     1 -4.360291930870430E-005
                     2 -2.040834480990590E-004
                     3  2.107155371204720E-003
                     4  9.936670976260920E-005
                     5  1.319068799644760E-003
                     6  5.854371349186670E-012
                     7  7.351623656519210E-005
                     8  3.003485616320200E-003
                     9 -9.628265802136590E-012
                    10  1.209964052545410E-005
                    11 -5.085883875186640E-005
                    12  7.029424597536980E-012
                    13 -2.187444268875160E-005
                    14 -5.262966021501520E-004
                    15  3.972805677543892E-005
                    16  5.960915876654830E-013
                    17  4.117034375765290E-006
                    18  6.433129260671959E-005
                    19  3.323327194710770E-013
                    20 -3.253042654376394E-004
                    21  4.924265374248040E-012
                    22 -6.051150813244620E-005
                    23 -3.596805823982700E-004
                    24 -3.106565489981640E-012
                    25  1.774370294229864E-004
                    26 -1.361169765054397E-012
                    27  1.525141018433497E-005
                    28 -2.751890295755320E-006
                    29  1.700568288744150E-012
                    30 -1.822562442929099E-012
                    31  3.742087179030825E-006
                    32   1.00105993532920     
                    33  9.266791515958149E-003
                    34  2.638852818044120E-003
                    35 -7.751939676268880E-003
                    36  2.321896002476600E-011
                    37 -2.418827252709910E-006
                    38 -4.090625822599240E-003
                    39 -2.369436358273110E-011
                    40  1.292272761138330E-005
                    41  1.003003874819740E-003
                    42 -1.463441733478800E-011
                    43 -5.775185635920820E-005
                    44  4.487205692753620E-003
                    45  4.724740643669548E-004
                    46  1.832759703073140E-012
                    47  4.579164726086040E-006
                    48 -4.322732120789660E-004
                    49 -3.262045183563620E-012
                    50  5.837473371331129E-004
                    51 -4.083548140180420E-012
                    52 -5.719162453822670E-005
                    53  9.457099930890380E-004
                    54  2.905452729682780E-012
                    55  3.843062516008708E-004
                    56 -8.447140589089597E-014
                    57  2.897532317403727E-006
                    58 -2.083320738756380E-004
                    59 -4.273512707360990E-012
                    60 -1.098764251722998E-012
                    61 -4.101479395255121E-007
                    62  7.206476046390230E-003
                    63 -2.061669595197830E-003
                    64 -2.769403827563480E-004
                    65  3.040574512052170E-003
                    66 -5.243896991006850E-012
                    67  1.071335291387850E-004
                    68 -2.472325455152840E-005
                    69  7.536844377437261E-012
                    70  5.839260313960920E-004
                    71  1.902596935636960E-005
                    72  1.687597043528740E-011
                    73 -2.143629974052800E-003
                    74  1.255467867183620E-004
                    75 -1.642922189997430E-005
                    76 -6.059091524193020E-015
                    77  1.464051666365130E-005
                    78  2.827411984422060E-005
                    79  3.133305156185000E-012
                    80  7.822002240930221E-004
                    81  2.572024920656520E-012
                    82 -4.314289630181750E-004
                    83 -4.667745273902800E-006
                    84  3.648995547511640E-013
                    85  7.361617535011413E-005
                    86  2.600305972564870E-012
                    87  4.764417830532297E-005
                    88 -1.262682185094478E-004
                    89  1.273970101720880E-012
                    90  6.396249522136256E-013
                    91  4.957750158846232E-005
                    92  7.184544413099910E-003
                    93 -2.045988614196410E-003
                    94 -2.788767171951210E-004
                    95  3.065439860900080E-003
                    96 -1.793567328776360E-012
                    97 -1.067844652163850E-004
                    98 -2.849874356568520E-005
                    99  3.589933108414570E-012
                   100 -6.189289528602680E-004
                   101  1.955088938094540E-005
                   102  3.233820754571960E-012
                   103  2.090282828483460E-003
                   104  4.919398404689620E-005
                   105 -1.515925066278647E-005
                   106 -2.125359059104050E-012
                   107 -1.267357430909070E-005
                   108  2.800019511112640E-005
                   109  5.729447117480720E-013
                   110  7.534096973381474E-004
                   111  6.736298066888820E-012
                   112  4.246138009411780E-004
                   113 -1.589637970742960E-005
                   114 -8.421513870471390E-012
                   115  7.233216801121305E-005
                   116 -7.186369224335463E-013
                   117 -4.507521559204920E-005
                   118 -1.272627100990816E-004
                   119  3.289737470213200E-012
                   120  2.153251460628432E-012
                   121 -5.090956533353890E-005
                   122 -2.367311614110700E-004
                   123 -7.704181478350420E-004
                   124  2.245472890445580E-004
                   125 -1.076745859656470E-004
                   126  7.509091310846321E-012
                   127 -2.094560884696690E-005
                   128 -2.435499791048730E-004
                   129 -6.064577231728390E-012
                   130  1.065194875501750E-006
                   131  5.425679503652619E-004
                   132 -1.083505082801720E-011
                   133  3.498818780703890E-004
                   134  7.934738498076850E-004
                   135 -1.396740920453593E-005
                   136 -3.096329277359050E-012
                   137  5.154345034078390E-005
                   138  1.364230923723532E-005
                   139  2.565127157770390E-012
                   140 -2.947438198141658E-004
                   141  1.121045805054720E-011
                   142 -2.207870478330810E-004
                   143 -1.519697362951406E-005
                   144 -6.247197119746920E-012
                   145  1.445185272216689E-006
                   146 -3.320036852788156E-013
                   147 -4.103881898842554E-005
                   148 -3.988470677314400E-005
                   149 -4.064170564552820E-012
                   150 -3.454640830723725E-013
                   151 -5.726899419981166E-006
                   152 -2.354988972085990E-004
                   153 -7.582053647501550E-004
                   154  2.253073552687630E-004
                   155 -1.108236020108150E-004
                   156  8.812733225798900E-012
                   157  1.834648121402910E-005
                   158 -2.445897760159540E-004
                   159 -7.665282467382129E-012
                   160  1.420134702749650E-005