[Molden Format]
[Atoms] AU
  N     1    7    -4.4554693000    0.1590069300   -0.0727221600        
  C     2    6    -1.7703367700   -0.0161789300   -0.0315987900        
  C     3    6    -0.4139575200    0.0289207600   -2.2939716700        
  C     4    6    -0.4423567700   -0.0438718800    2.2429731500        
  C     5    6     2.1990475100    0.0217403300   -2.2660082700        
  C     6    6     2.1764479600   -0.0283698000    2.2471421600        
  C     7    6     3.5131414400   -0.0013153500    0.0001798600        
  H     8    1    -5.1892469100   -1.0126506900   -1.4231643000        
  H     9    1    -5.1810929100   -0.4024677500    1.6286728100        
  H    10    1    -1.4102586100    0.0776390000   -4.0596025100        
  H    11    1    -1.4539702000   -0.0797908100    4.0008189400        
  H    12    1     3.2130180900    0.0448303000   -4.0235547100        
  H    13    1     3.1678693000   -0.0513532100    4.0175598700        
  H    14    1     5.5410304800    0.0010846300    0.0107455400        
[5D]
[7F]
[GTO]
  1  0
   s    12 1.00
  0.114200D+05  0.172695D-04
  0.171200D+04  0.134411D-03
  0.389300D+03  0.694561D-03
  0.110000D+03  0.278531D-02
  0.355700D+02  0.863457D-02
  0.125400D+02  0.199805D-01
  0.464400D+01  0.262908D-01
  0.129300D+01 -0.243845D-01
  0.511800D+00 -0.924934D-01
  0.178700D+00 -0.339683D+00
  0.246240D-01  0.345111D+00
  0.112530D-01  0.752750D+00
   s    10 1.00
  0.114200D+05  0.523000D-03
  0.171200D+04  0.404500D-02
  0.389300D+03  0.207750D-01
  0.110000D+03  0.807269D-01
  0.355700D+02  0.233074D+00
  0.125400D+02  0.433501D+00
  0.464400D+01  0.347472D+00
  0.129300D+01  0.412620D-01
  0.511800D+00 -0.850799D-02
  0.178700D+00  0.238400D-02
   s    10 1.00
  0.114200D+05 -0.115000D-03
  0.171200D+04 -0.895000D-03
  0.389300D+03 -0.462400D-02
  0.110000D+03 -0.185280D-01
  0.355700D+02 -0.573390D-01
  0.125400D+02 -0.132076D+00
  0.464400D+01 -0.172510D+00
  0.129300D+01  0.151814D+00
  0.511800D+00  0.599944D+00
  0.178700D+00  0.387462D+00
   s     1 1.00
  0.129300D+01  0.100000D+01
   s     1 1.00
  0.178700D+00  0.100000D+01
   p     5 1.00
  0.266300D+02  0.146700D-01
  0.594800D+01  0.917640D-01
  0.174200D+01  0.298683D+00
  0.555000D+00  0.498487D+00
  0.172500D+00  0.337023D+00
   p     1 1.00
  0.174200D+01  0.100000D+01
   p     1 1.00
  0.555000D+00  0.100000D+01
   d     1 1.00
  0.165400D+01  0.100000D+01
   d     1 1.00
  0.469000D+00  0.100000D+01
   f     1 1.00
  0.109300D+01  0.100000D+01
  
  2  0
   s    10 1.00
  0.823600D+04  0.531000D-03
  0.123500D+04  0.410800D-02
  0.280800D+03  0.210870D-01
  0.792700D+02  0.818530D-01
  0.255900D+02  0.234817D+00
  0.899700D+01  0.434401D+00
  0.331900D+01  0.346129D+00
  0.905900D+00  0.393780D-01
  0.364300D+00 -0.898300D-02
  0.128500D+00  0.238500D-02
   s    10 1.00
  0.823600D+04 -0.113000D-03
  0.123500D+04 -0.878000D-03
  0.280800D+03 -0.454000D-02
  0.792700D+02 -0.181330D-01
  0.255900D+02 -0.557600D-01
  0.899700D+01 -0.126895D+00
  0.331900D+01 -0.170352D+00
  0.905900D+00  0.140382D+00
  0.364300D+00  0.598684D+00
  0.128500D+00  0.395389D+00
   s     1 1.00
  0.905900D+00  0.100000D+01
   s     1 1.00
  0.364300D+00  0.100000D+01
   p     5 1.00
  0.187100D+02  0.140310D-01
  0.413300D+01  0.868660D-01
  0.120000D+01  0.290216D+00
  0.382700D+00  0.501008D+00
  0.120900D+00  0.343406D+00
   p     1 1.00
  0.382700D+00  0.100000D+01
   p     1 1.00
  0.120900D+00  0.100000D+01
   d     1 1.00
  0.109700D+01  0.100000D+01
   d     1 1.00
  0.318000D+00  0.100000D+01
   f     1 1.00
  0.761000D+00  0.100000D+01
  
  3  0
   s    10 1.00
  0.823600D+04  0.531000D-03
  0.123500D+04  0.410800D-02
  0.280800D+03  0.210870D-01
  0.792700D+02  0.818530D-01
  0.255900D+02  0.234817D+00
  0.899700D+01  0.434401D+00
  0.331900D+01  0.346129D+00
  0.905900D+00  0.393780D-01
  0.364300D+00 -0.898300D-02
  0.128500D+00  0.238500D-02
   s    10 1.00
  0.823600D+04 -0.113000D-03
  0.123500D+04 -0.878000D-03
  0.280800D+03 -0.454000D-02
  0.792700D+02 -0.181330D-01
  0.255900D+02 -0.557600D-01
  0.899700D+01 -0.126895D+00
  0.331900D+01 -0.170352D+00
  0.905900D+00  0.140382D+00
  0.364300D+00  0.598684D+00
  0.128500D+00  0.395389D+00
   s     1 1.00
  0.905900D+00  0.100000D+01
   s     1 1.00
  0.364300D+00  0.100000D+01
   p     5 1.00
  0.187100D+02  0.140310D-01
  0.413300D+01  0.868660D-01
  0.120000D+01  0.290216D+00
  0.382700D+00  0.501008D+00
  0.120900D+00  0.343406D+00
   p     1 1.00
  0.382700D+00  0.100000D+01
   p     1 1.00
  0.120900D+00  0.100000D+01
   d     1 1.00
  0.109700D+01  0.100000D+01
   d     1 1.00
  0.318000D+00  0.100000D+01
   f     1 1.00
  0.761000D+00  0.100000D+01
  
  4  0
   s    10 1.00
  0.823600D+04  0.531000D-03
  0.123500D+04  0.410800D-02
  0.280800D+03  0.210870D-01
  0.792700D+02  0.818530D-01
  0.255900D+02  0.234817D+00
  0.899700D+01  0.434401D+00
  0.331900D+01  0.346129D+00
  0.905900D+00  0.393780D-01
  0.364300D+00 -0.898300D-02
  0.128500D+00  0.238500D-02
   s    10 1.00
  0.823600D+04 -0.113000D-03
  0.123500D+04 -0.878000D-03
  0.280800D+03 -0.454000D-02
  0.792700D+02 -0.181330D-01
  0.255900D+02 -0.557600D-01
  0.899700D+01 -0.126895D+00
  0.331900D+01 -0.170352D+00
  0.905900D+00  0.140382D+00
  0.364300D+00  0.598684D+00
  0.128500D+00  0.395389D+00
   s     1 1.00
  0.905900D+00  0.100000D+01
   s     1 1.00
  0.364300D+00  0.100000D+01
   p     5 1.00
  0.187100D+02  0.140310D-01
  0.413300D+01  0.868660D-01
  0.120000D+01  0.290216D+00
  0.382700D+00  0.501008D+00
  0.120900D+00  0.343406D+00
   p     1 1.00
  0.382700D+00  0.100000D+01
   p     1 1.00
  0.120900D+00  0.100000D+01
   d     1 1.00
  0.109700D+01  0.100000D+01
   d     1 1.00
  0.318000D+00  0.100000D+01
   f     1 1.00
  0.761000D+00  0.100000D+01
  
  5  0
   s    10 1.00
  0.823600D+04  0.531000D-03
  0.123500D+04  0.410800D-02
  0.280800D+03  0.210870D-01
  0.792700D+02  0.818530D-01
  0.255900D+02  0.234817D+00
  0.899700D+01  0.434401D+00
  0.331900D+01  0.346129D+00
  0.905900D+00  0.393780D-01
  0.364300D+00 -0.898300D-02
  0.128500D+00  0.238500D-02
   s    10 1.00
  0.823600D+04 -0.113000D-03
  0.123500D+04 -0.878000D-03
  0.280800D+03 -0.454000D-02
  0.792700D+02 -0.181330D-01
  0.255900D+02 -0.557600D-01
  0.899700D+01 -0.126895D+00
  0.331900D+01 -0.170352D+00
  0.905900D+00  0.140382D+00
  0.364300D+00  0.598684D+00
  0.128500D+00  0.395389D+00
   s     1 1.00
  0.905900D+00  0.100000D+01
   s     1 1.00
  0.364300D+00  0.100000D+01
   p     5 1.00
  0.187100D+02  0.140310D-01
  0.413300D+01  0.868660D-01
  0.120000D+01  0.290216D+00
  0.382700D+00  0.501008D+00
  0.120900D+00  0.343406D+00
   p     1 1.00
  0.382700D+00  0.100000D+01
   p     1 1.00
  0.120900D+00  0.100000D+01
   d     1 1.00
  0.109700D+01  0.100000D+01
   d     1 1.00
  0.318000D+00  0.100000D+01
   f     1 1.00
  0.761000D+00  0.100000D+01
  
  6  0
   s    10 1.00
  0.823600D+04  0.531000D-03
  0.123500D+04  0.410800D-02
  0.280800D+03  0.210870D-01
  0.792700D+02  0.818530D-01
  0.255900D+02  0.234817D+00
  0.899700D+01  0.434401D+00
  0.331900D+01  0.346129D+00
  0.905900D+00  0.393780D-01
  0.364300D+00 -0.898300D-02
  0.128500D+00  0.238500D-02
   s    10 1.00
  0.823600D+04 -0.113000D-03
  0.123500D+04 -0.878000D-03
  0.280800D+03 -0.454000D-02
  0.792700D+02 -0.181330D-01
  0.255900D+02 -0.557600D-01
  0.899700D+01 -0.126895D+00
  0.331900D+01 -0.170352D+00
  0.905900D+00  0.140382D+00
  0.364300D+00  0.598684D+00
  0.128500D+00  0.395389D+00
   s     1 1.00
  0.905900D+00  0.100000D+01
   s     1 1.00
  0.364300D+00  0.100000D+01
   p     5 1.00
  0.187100D+02  0.140310D-01
  0.413300D+01  0.868660D-01
  0.120000D+01  0.290216D+00
  0.382700D+00  0.501008D+00
  0.120900D+00  0.343406D+00
   p     1 1.00
  0.382700D+00  0.100000D+01
   p     1 1.00
  0.120900D+00  0.100000D+01
   d     1 1.00
  0.109700D+01  0.100000D+01
   d     1 1.00
  0.318000D+00  0.100000D+01
   f     1 1.00
  0.761000D+00  0.100000D+01
  
  7  0
   s    10 1.00
  0.823600D+04  0.531000D-03
  0.123500D+04  0.410800D-02
  0.280800D+03  0.210870D-01
  0.792700D+02  0.818530D-01
  0.255900D+02  0.234817D+00
  0.899700D+01  0.434401D+00
  0.331900D+01  0.346129D+00
  0.905900D+00  0.393780D-01
  0.364300D+00 -0.898300D-02
  0.128500D+00  0.238500D-02
   s    10 1.00
  0.823600D+04 -0.113000D-03
  0.123500D+04 -0.878000D-03
  0.280800D+03 -0.454000D-02
  0.792700D+02 -0.181330D-01
  0.255900D+02 -0.557600D-01
  0.899700D+01 -0.126895D+00
  0.331900D+01 -0.170352D+00
  0.905900D+00  0.140382D+00
  0.364300D+00  0.598684D+00
  0.128500D+00  0.395389D+00
   s     1 1.00
  0.905900D+00  0.100000D+01
   s     1 1.00
  0.364300D+00  0.100000D+01
   p     5 1.00
  0.187100D+02  0.140310D-01
  0.413300D+01  0.868660D-01
  0.120000D+01  0.290216D+00
  0.382700D+00  0.501008D+00
  0.120900D+00  0.343406D+00
   p     1 1.00
  0.382700D+00  0.100000D+01
   p     1 1.00
  0.120900D+00  0.100000D+01
   d     1 1.00
  0.109700D+01  0.100000D+01
   d     1 1.00
  0.318000D+00  0.100000D+01
   f     1 1.00
  0.761000D+00  0.100000D+01
  
  8  0
   s     4 1.00
  0.130100D+02  0.196850D-01
  0.196200D+01  0.137977D+00
  0.444600D+00  0.478148D+00
  0.122000D+00  0.501240D+00
   s     1 1.00
  0.122000D+00  0.100000D+01
   p     1 1.00
  0.727000D+00  0.100000D+01
  
  9  0
   s     4 1.00
  0.130100D+02  0.196850D-01
  0.196200D+01  0.137977D+00
  0.444600D+00  0.478148D+00
  0.122000D+00  0.501240D+00
   s     1 1.00
  0.122000D+00  0.100000D+01
   p     1 1.00
  0.727000D+00  0.100000D+01
  
 10  0
   s     4 1.00
  0.130100D+02  0.196850D-01
  0.196200D+01  0.137977D+00
  0.444600D+00  0.478148D+00
  0.122000D+00  0.501240D+00
   s     1 1.00
  0.122000D+00  0.100000D+01
   p     1 1.00
  0.727000D+00  0.100000D+01
  
 11  0
   s     4 1.00
  0.130100D+02  0.196850D-01
  0.196200D+01  0.137977D+00
  0.444600D+00  0.478148D+00
  0.122000D+00  0.501240D+00
   s     1 1.00
  0.122000D+00  0.100000D+01
   p     1 1.00
  0.727000D+00  0.100000D+01
  
 12  0
   s     4 1.00
  0.130100D+02  0.196850D-01
  0.196200D+01  0.137977D+00
  0.444600D+00  0.478148D+00
  0.122000D+00  0.501240D+00
   s     1 1.00
  0.122000D+00  0.100000D+01
   p     1 1.00
  0.727000D+00  0.100000D+01
  
 13  0
   s     4 1.00
  0.130100D+02  0.196850D-01
  0.196200D+01  0.137977D+00
  0.444600D+00  0.478148D+00
  0.122000D+00  0.501240D+00
   s     1 1.00
  0.122000D+00  0.100000D+01
   p     1 1.00
  0.727000D+00  0.100000D+01
  
 14  0
   s     4 1.00
  0.130100D+02  0.196850D-01
  0.196200D+01  0.137977D+00
  0.444600D+00  0.478148D+00
  0.122000D+00  0.501240D+00
   s     1 1.00
  0.122000D+00  0.100000D+01
   p     1 1.00
  0.727000D+00  0.100000D+01
  
[MO]
 Sym= __1_A__
 Ene=  0.000000000000000E+000
 Spin= Alpha
 Occup=    2.00000000000000     
                     1  2.241101807558100E-004
                     2  0.998067868295250     
                     3  3.968862015787739E-003
                     4  1.921571024693584E-003
                     5  5.502115617554451E-003
                     6  5.476366503249095E-003
                     7 -4.704680634896916E-003
                     8  1.244758454811741E-003
                     9 -7.609773584063703E-004
                    10  2.444350480283467E-004
                    11 -1.399928526757637E-004
                    12 -1.363870079538690E-003
                    13  3.063128624654960E-003
                    14 -7.550755139796992E-004
                    15 -6.373115749196110E-006
                    16 -2.044202807503662E-005
                    17  9.706283345686818E-007
                    18  7.629611466816115E-005
                    19  6.274825059442268E-005
                    20 -3.711199790005769E-004
                    21  1.491681319335673E-004
                    22 -7.523436759502506E-005
                    23  5.427292657457746E-005
                    24 -4.750567780322376E-004
                    25 -3.311773061814545E-005
                    26 -1.423361744284776E-004
                    27 -5.838101785475949E-005
                    28  3.661651969445154E-005
                    29 -1.413892949794020E-005
                    30 -1.006441434560019E-004
                    31 -5.371602612370135E-005
                    32 -3.871706039195563E-004
                    33  9.499481594475484E-004
                    34  2.420677597271609E-004
                    35 -1.081666895586431E-004
                    36 -4.435988902762987E-003
                    37 -1.021430481603940E-005
                    38 -7.530444926806186E-005
                    39  2.054594654263038E-004
                    40 -1.683872467781432E-005
                    41  2.197246082577956E-004
                    42  4.850350611519676E-003
                    43  7.799757178987407E-004
                    44 -1.075970902839356E-003
                    45 -2.250062170493198E-004
                    46  1.191701723917279E-005
                    47  3.591634978671130E-006
                    48  2.081318837182902E-004
                    49  4.726817137542804E-005
                    50  4.667721533426724E-004
                    51  1.662932790126384E-004
                    52 -2.500713149956750E-005
                    53 -5.231195475621274E-005
                    54 -3.522330726381207E-004
                    55  1.220403260910901E-005
                    56 -6.097588983064696E-005
                    57  9.812480832436554E-006
                    58  8.724677829685199E-006
                    59  9.614402650884371E-007
                    60 -3.488169664556475E-005
                    61  3.520996912888751E-005
                    62 -4.549918566578040E-004
                    63 -2.118150230003932E-003
                    64  5.418108606084880E-005
                    65  1.307230126092297E-003
                    66  5.557976967451967E-004
                    67 -8.927626862496823E-005
                    68 -6.255825180884445E-004
                    69  7.085230055464124E-004
                    70  7.553346809219235E-005
                    71  2.388110739715543E-004
                    72  1.852892256820552E-004
                    73 -3.328463624539692E-004
                    74 -1.064072364307121E-003
                    75 -7.561342924769195E-005
                    76 -1.662837088797199E-005
                    77  1.937992625640439E-005
                    78  6.841136027738352E-005
                    79 -8.738794195950365E-006
                    80  2.347301307456479E-004
                    81  1.867433791829572E-004
                    82 -3.576073662829106E-005
                    83 -8.204025527932630E-005
                    84  4.481530772908693E-005
                    85 -1.314589766497752E-005
                    86 -8.083218139052643E-005
                    87  2.106954827409414E-005
                    88 -7.681934710163605E-006
                    89  1.318747653537988E-005
                    90 -5.587917885185861E-005
                    91 -1.211732190747727E-005
                    92 -2.584999193156005E-004
                    93 -1.473392089541010E-003
                    94  1.417894723554944E-004
                    95  3.616596522830006E-004
                    96  6.256516535865110E-004
                    97 -9.074585908051118E-005
                    98  5.604125682609158E-004
                    99  4.803766808146789E-004
                   100  8.650972230311829E-005
                   101  1.969755209256925E-005
                   102 -1.115302423572592E-003
                   103 -3.499688459545483E-004
                   104  5.304151948870902E-004
                   105 -7.437996415967350E-005
                   106  9.148019959158618E-006
                   107 -1.624027134810711E-005
                   108  5.633842550019920E-005
                   109 -1.015144250034534E-005
                   110  1.228404705937560E-004
                   111 -1.883410816545466E-004
                   112  1.866262726189291E-005
                   113 -1.578080466259295E-004
                   114  5.944100409011758E-005
                   115  1.161911690145138E-006
                   116 -3.002153693782871E-005
                   117  2.055347842921116E-005
                   118  1.460963353530836E-005
                   119 -1.225237042324476E-005
                   120 -3.622596280530228E-005
                   121 -9.708047486692795E-006
                   122 -2.188483072273781E-004
                   123 -4.023796316549561E-004
                   124  7.569928729893225E-005
                   125  6.067551348298732E-004
                   126 -5.655404355978945E-004
                   127 -3.591707244036216E-005
                   128  8.935960407001701E-006
                   129  3.534158646888688E-004
                   130 -2.343526428005814E-005
                   131  9.440224479076778E-005
                   132  1.488030185663185E-003
                   133  1.550181831571431E-004
                   134 -3.056597507368613E-006
                   135  1.191786511572922E-005
                   136  1.457439081413819E-006
                   137 -4.156699271063330E-006
                   138 -5.393435693999898E-006
                   139  9.578765553547871E-006
                   140  1.367830544672602E-004
                   141  2.433576742849152E-004
                   142  9.831643411369711E-006
                   143 -2.494637588771250E-004
                   144 -2.043735225760696E-005
                   145 -1.859009893777696E-005
                   146 -1.725347881807062E-005
                   147  1.871584794444783E-006
                   148 -6.582922145781994E-006
                   149 -2.432091626198080E-006
                   150 -5.668180146088462E-005
                   151 -1.148711400482106E-006
                   152 -1.625060471376756E-004
                   153 -2.196541185591291E-004
                   154  2.943981107527469E-005
                   155  5.000327936592120E-004
                   156 -5.339201058313767E-004
                   157 -3.282175850500202E-005
                   158 -4.000251254273926E-005
                   159  8.916681974899714E-005
                   160 -2.855947501027742E-005
                   161  7.647390936540948E-005
                   162  1.980326979301963E-004
                   163  1.355264144967246E-004
                   164  5.291624051796484E-004
                   165 -3.212120246591953E-006
                   166  2.230849827867414E-006
                   167  3.562481711115936E-006
                   168  5.824649906757594E-006
                   169  8.197268140680451E-006
                   170  1.464778073047724E-005
                   171 -1.412336392831959E-004
                   172 -5.272479177176432E-006
                   173 -1.147114955165791E-004
                   174 -7.673711032285126E-006
                   175  3.720249026964752E-006
                   176 -1.233568327299882E-005
                   177  2.844391869272040E-006
                   178  1.676659660293963E-006
                   179  1.049105634752307E-006
                   180 -3.207325332439047E-005
                   181 -2.488902088783417E-006
                   182 -1.271560088220567E-004
                   183 -3.935083381195334E-004
                   184  2.787138691840953E-005
                   185  1.548665628420820E-004
                   186 -1.672547117869391E-005
                   187 -4.265528165311465E-005
                   188 -3.058916506258807E-005
                   189  9.340496696081612E-005
                   190  1.979418157876583E-005
                   191  1.308259273026370E-004
                   192 -3.696736864562719E-004
                   193 -1.118329536224921E-004
                   194  7.102036732675585E-004
                   195 -1.017353524498079E-005
                   196  1.090844321358671E-006
                   197 -2.725518237319167E-008
                   198  4.029433578105162E-006
                   199 -2.156596868308593E-006
                   200 -1.150522651402662E-004
                   201 -1.079410843113829E-004
                   202  1.605593355701018E-006
                   203  6.430013189751756E-005
                   204  1.721865448317881E-005
                   205  1.229305782910695E-006
                   206  1.001923389532371E-006
                   207  2.871874615646630E-006
                   208  8.536301935170846E-006
                   209 -4.091838549649373E-007
                   210 -5.529172890221659E-006
                   211 -2.626734158834963E-006
                   212  2.679712444627986E-003
                   213 -2.143730459543809E-003
                   214  1.734861567820868E-004
                   215  3.598080394117645E-004
                   216  2.906904493924837E-004
                   217  2.880607674157463E-003
                   218 -2.245154779516139E-003
                   219  1.942397382195368E-004
                   220  2.233779420143522E-004
                   221 -4.386709214597257E-004
                   222 -5.207163581638433E-004
                   223 -2.888539953383491E-004
                   224 -6.894807806858791E-005
                   225  8.984785575426982E-006
                   226  3.512328856197105E-005
                   227 -4.778454908227392E-004
                   228 -3.335401597841419E-004
                   229 -5.345106212269743E-005
                   230  1.182312137293892E-005
                   231 -4.047552697715028E-005
                   232 -1.016872408340424E-004
                   233 -5.272042227366526E-004
                   234  2.398781099604195E-006
                   235 -1.204683388344463E-006
                   236 -6.363195342742854E-006
                   237 -1.330377507180227E-004
                   238 -4.097662362939045E-004
                   239  8.497576118244060E-006
                   240 -2.166837877936787E-006
                   241  1.285483006593953E-005
                   242  1.749102107841342E-005
                   243  1.156051225275914E-004
                   244  2.975145010787494E-005
                   245  1.770218229473085E-006
                   246  8.853198222271056E-007
 Sym= __2_A__
 Ene=  0.000000000000000E+000
 Spin= Alpha
 Occup=    2.00000000000000     
                     1 -1.966953746260264E-005
                     2 -8.370616865050339E-005
                     3  1.957752164807938E-003
                     4 -1.312886972262059E-005
                     5  1.243392198737662E-003
                     6  1.932352265958520E-003
                     7  2.842616423065062E-004
                     8 -1.004223767167356E-004
                     9 -1.496283353816974E-004
                    10  9.878767585056413E-005
                    11 -1.069515343423058E-005
                    12  4.562977401798579E-005
                    13  5.369445044676615E-005
                    14  3.653053865779371E-005
                    15 -7.189976126536099E-005
                    16  5.683371903545132E-006
                    17 -4.599543870410575E-006
                    18  4.028408709577520E-005
                    19 -2.824620146048908E-006
                    20  1.827182631984405E-004
                    21 -3.422545554631725E-005
                    22  1.441162782595324E-005
                    23  9.997297269820793E-005
                    24 -4.309650100525324E-005
                    25 -3.024950773641538E-005
                    26  1.386715918362366E-004
                    27 -5.077566363061379E-005
                    28  4.920272490630452E-007
                    29  8.120059519701828E-007
                    30  1.285082872466380E-004
                    31  3.620244941412179E-005
                    32   1.00096659645875     
                    33  8.776083184957272E-003
                    34  2.784968006509862E-003
                    35 -8.227362811450954E-003
                    36 -2.581457415651713E-003
                    37  6.884222789409773E-004
                    38  4.166518686462054E-006
                    39  1.097749178752118E-003
                    40 -2.246255085356810E-004
                    41 -4.242319285998408E-005
                    42  3.439000623782640E-003
                    43 -1.277202953474483E-004
                    44 -9.571916079456693E-005
                    45  2.966187665327011E-004
                    46  1.013380972557786E-005
                    47 -7.319979194869133E-006
                    48  4.164231380752342E-004
                    49 -2.361523842239709E-005
                    50 -1.042926359440347E-003
                    51 -6.763501032193990E-005
                    52  3.361728214677421E-005
                    53 -1.143921426347399E-004
                    54  3.071291271400470E-005
                    55 -4.459004356072067E-006
                    56  3.110188524355978E-004
                    57 -8.836706636705697E-006
                    58 -6.681610010212254E-006
                    59 -1.826881124700834E-006
                    60  8.169729177982078E-005
                    61  1.837246434426678E-005
                    62  1.230947680806402E-002
                    63 -1.875465986858722E-003
                    64 -3.013786134760287E-004
                    65  3.093996261617215E-003
                    66 -1.414512820020826E-004
                    67  1.166527393838736E-004
                    68  2.648372548433583E-004
                    69  3.207242907141572E-005
                    70 -5.645712491462574E-006
                    71  4.756483781098555E-004
                    72  2.591144347468296E-004
                    73 -1.038859380390186E-006
                    74 -1.856456164132714E-003
                    75 -1.066031044327453E-005
                    76  2.579471245503035E-005
                    77  9.358236083930667E-006
                    78 -3.679543501768296E-005
                    79 -4.747929188738794E-006
                    80 -4.365785447353748E-004
                    81 -4.528241569256180E-004
                    82  3.387194487134405E-006
                    83  7.712455050870938E-004
                    84  1.620075068720945E-007
                    85  4.991278203359722E-005
                    86  1.099597070871911E-004
                    87  3.988095278466689E-006
                    88 -1.577588648280645E-005
                    89 -1.015428685877129E-005
                    90 -2.727828603994139E-005
                    91  4.267422982446785E-006
                    92  1.290133585619492E-002
                    93 -1.834773588174428E-003
                    94 -3.238304446912731E-004
                    95  3.203518736857150E-003
                    96 -1.593822120764569E-004
                    97  1.269400789236539E-004
                    98 -2.569911431539069E-004
                    99  1.925793598550032E-005
                   100  1.186700204205102E-005
                   101 -5.651548062528046E-004
                   102  7.045602729831284E-005
                   103 -5.771662453991638E-005
                   104  1.813343419722788E-003
                   105 -8.468200708422383E-006
                   106 -2.271105523834257E-005
                   107 -7.143655306867166E-006
                   108 -3.486334212720526E-005
                   109 -4.624294738446264E-006
                   110 -3.970658430541457E-004
                   111  4.804572244362280E-004
                   112 -2.737553215332489E-006
                   113  7.465946984732376E-004
                   114 -6.954373804240335E-006
                   115 -5.149805042408422E-005
                   116  1.042512369330339E-004
                   117 -1.977524128417195E-006
                   118  1.774170455068924E-005
                   119  3.702571293838295E-006
                   120 -3.162606345998764E-005
                   121  5.219137417194049E-006
                   122 -1.525195818567282E-004
                   123 -7.302305241234913E-004
                   124  2.480938229209072E-004
                   125 -2.980226394372688E-004
                   126 -1.905657069610211E-004
                   127  2.511331054852019E-005
                   128 -4.714656209683470E-005
                   129  6.026653887242185E-004
                   130 -6.105578265467004E-006
                   131  5.879637319737669E-005
                   132  6.558111452950061E-004
                   133 -2.009905394302945E-006
                   134  3.703828536414527E-004
                   135  3.936577397920245E-009
                   136  4.186823225438001E-005
                   137  2.017145224819525E-007
                   138 -3.280642010945872E-005
                   139 -1.878704157175109E-006
                   140  1.965271764021040E-004
                   141 -2.619708011534680E-004
                   142  3.045525725979351E-006
                   143 -2.639977586359324E-004
                   144  1.510387767950066E-006
                   145 -1.842987363254418E-005
                   146  1.457372755790429E-005
                   147 -2.901752968077443E-007
                   148 -1.259677518206275E-005
                   149 -2.482858152544257E-006
                   150 -2.441296823406862E-005
                   151 -3.799120668217347E-007
                   152 -1.382371533587709E-004
                   153 -7.039751795822005E-004
                   154  2.559652843519617E-004
                   155 -3.418671626036610E-004
                   156 -1.844270529355339E-004
                   157  1.874784344216542E-005
                   158  3.843306592447366E-005
                   159  5.935377012975506E-004
                   160  2.375797117002095E-006