[Molden Format]
[Atoms] AU
  N     1    7    -4.4554693000    0.1590069300   -0.0727221600        
  C     2    6    -1.7703367700   -0.0161789300   -0.0315987900        
  C     3    6    -0.4139575200    0.0289207600   -2.2939716700        
  C     4    6    -0.4423567700   -0.0438718800    2.2429731500        
  C     5    6     2.1990475100    0.0217403300   -2.2660082700        
  C     6    6     2.1764479600   -0.0283698000    2.2471421600        
  C     7    6     3.5131414400   -0.0013153500    0.0001798600        
  H     8    1    -5.1892469100   -1.0126506900   -1.4231643000        
  H     9    1    -5.1810929100   -0.4024677500    1.6286728100        
  H    10    1    -1.4102586100    0.0776390000   -4.0596025100        
  H    11    1    -1.4539702000   -0.0797908100    4.0008189400        
  H    12    1     3.2130180900    0.0448303000   -4.0235547100        
  H    13    1     3.1678693000   -0.0513532100    4.0175598700        
  H    14    1     5.5410304800    0.0010846300    0.0107455400        
[5D]
[7F]
[GTO]
  1  0
   s    12 1.00
  0.114200D+05  0.172695D-04
  0.171200D+04  0.134411D-03
  0.389300D+03  0.694561D-03
  0.110000D+03  0.278531D-02
  0.355700D+02  0.863457D-02
  0.125400D+02  0.199805D-01
  0.464400D+01  0.262908D-01
  0.129300D+01 -0.243845D-01
  0.511800D+00 -0.924934D-01
  0.178700D+00 -0.339683D+00
  0.246240D-01  0.345111D+00
  0.112530D-01  0.752750D+00
   s    10 1.00
  0.114200D+05  0.523000D-03
  0.171200D+04  0.404500D-02
  0.389300D+03  0.207750D-01
  0.110000D+03  0.807269D-01
  0.355700D+02  0.233074D+00
  0.125400D+02  0.433501D+00
  0.464400D+01  0.347472D+00
  0.129300D+01  0.412620D-01
  0.511800D+00 -0.850799D-02
  0.178700D+00  0.238400D-02
   s    10 1.00
  0.114200D+05 -0.115000D-03
  0.171200D+04 -0.895000D-03
  0.389300D+03 -0.462400D-02
  0.110000D+03 -0.185280D-01
  0.355700D+02 -0.573390D-01
  0.125400D+02 -0.132076D+00
  0.464400D+01 -0.172510D+00
  0.129300D+01  0.151814D+00
  0.511800D+00  0.599944D+00
  0.178700D+00  0.387462D+00
   s     1 1.00
  0.129300D+01  0.100000D+01
   s     1 1.00
  0.178700D+00  0.100000D+01
   p     5 1.00
  0.266300D+02  0.146700D-01
  0.594800D+01  0.917640D-01
  0.174200D+01  0.298683D+00
  0.555000D+00  0.498487D+00
  0.172500D+00  0.337023D+00
   p     1 1.00
  0.174200D+01  0.100000D+01
   p     1 1.00
  0.555000D+00  0.100000D+01
   d     1 1.00
  0.165400D+01  0.100000D+01
   d     1 1.00
  0.469000D+00  0.100000D+01
   f     1 1.00
  0.109300D+01  0.100000D+01
  
  2  0
   s    10 1.00
  0.823600D+04  0.531000D-03
  0.123500D+04  0.410800D-02
  0.280800D+03  0.210870D-01
  0.792700D+02  0.818530D-01
  0.255900D+02  0.234817D+00
  0.899700D+01  0.434401D+00
  0.331900D+01  0.346129D+00
  0.905900D+00  0.393780D-01
  0.364300D+00 -0.898300D-02
  0.128500D+00  0.238500D-02
   s    10 1.00
  0.823600D+04 -0.113000D-03
  0.123500D+04 -0.878000D-03
  0.280800D+03 -0.454000D-02
  0.792700D+02 -0.181330D-01
  0.255900D+02 -0.557600D-01
  0.899700D+01 -0.126895D+00
  0.331900D+01 -0.170352D+00
  0.905900D+00  0.140382D+00
  0.364300D+00  0.598684D+00
  0.128500D+00  0.395389D+00
   s     1 1.00
  0.905900D+00  0.100000D+01
   s     1 1.00
  0.364300D+00  0.100000D+01
   p     5 1.00
  0.187100D+02  0.140310D-01
  0.413300D+01  0.868660D-01
  0.120000D+01  0.290216D+00
  0.382700D+00  0.501008D+00
  0.120900D+00  0.343406D+00
   p     1 1.00
  0.382700D+00  0.100000D+01
   p     1 1.00
  0.120900D+00  0.100000D+01
   d     1 1.00
  0.109700D+01  0.100000D+01
   d     1 1.00
  0.318000D+00  0.100000D+01
   f     1 1.00
  0.761000D+00  0.100000D+01
  
  3  0
   s    10 1.00
  0.823600D+04  0.531000D-03
  0.123500D+04  0.410800D-02
  0.280800D+03  0.210870D-01
  0.792700D+02  0.818530D-01
  0.255900D+02  0.234817D+00
  0.899700D+01  0.434401D+00
  0.331900D+01  0.346129D+00
  0.905900D+00  0.393780D-01
  0.364300D+00 -0.898300D-02
  0.128500D+00  0.238500D-02
   s    10 1.00
  0.823600D+04 -0.113000D-03
  0.123500D+04 -0.878000D-03
  0.280800D+03 -0.454000D-02
  0.792700D+02 -0.181330D-01
  0.255900D+02 -0.557600D-01
  0.899700D+01 -0.126895D+00
  0.331900D+01 -0.170352D+00
  0.905900D+00  0.140382D+00
  0.364300D+00  0.598684D+00
  0.128500D+00  0.395389D+00
   s     1 1.00
  0.905900D+00  0.100000D+01
   s     1 1.00
  0.364300D+00  0.100000D+01
   p     5 1.00
  0.187100D+02  0.140310D-01
  0.413300D+01  0.868660D-01
  0.120000D+01  0.290216D+00
  0.382700D+00  0.501008D+00
  0.120900D+00  0.343406D+00
   p     1 1.00
  0.382700D+00  0.100000D+01
   p     1 1.00
  0.120900D+00  0.100000D+01
   d     1 1.00
  0.109700D+01  0.100000D+01
   d     1 1.00
  0.318000D+00  0.100000D+01
   f     1 1.00
  0.761000D+00  0.100000D+01
  
  4  0
   s    10 1.00
  0.823600D+04  0.531000D-03
  0.123500D+04  0.410800D-02
  0.280800D+03  0.210870D-01
  0.792700D+02  0.818530D-01
  0.255900D+02  0.234817D+00
  0.899700D+01  0.434401D+00
  0.331900D+01  0.346129D+00
  0.905900D+00  0.393780D-01
  0.364300D+00 -0.898300D-02
  0.128500D+00  0.238500D-02
   s    10 1.00
  0.823600D+04 -0.113000D-03
  0.123500D+04 -0.878000D-03
  0.280800D+03 -0.454000D-02
  0.792700D+02 -0.181330D-01
  0.255900D+02 -0.557600D-01
  0.899700D+01 -0.126895D+00
  0.331900D+01 -0.170352D+00
  0.905900D+00  0.140382D+00
  0.364300D+00  0.598684D+00
  0.128500D+00  0.395389D+00
   s     1 1.00
  0.905900D+00  0.100000D+01
   s     1 1.00
  0.364300D+00  0.100000D+01
   p     5 1.00
  0.187100D+02  0.140310D-01
  0.413300D+01  0.868660D-01
  0.120000D+01  0.290216D+00
  0.382700D+00  0.501008D+00
  0.120900D+00  0.343406D+00
   p     1 1.00
  0.382700D+00  0.100000D+01
   p     1 1.00
  0.120900D+00  0.100000D+01
   d     1 1.00
  0.109700D+01  0.100000D+01
   d     1 1.00
  0.318000D+00  0.100000D+01
   f     1 1.00
  0.761000D+00  0.100000D+01
  
  5  0
   s    10 1.00
  0.823600D+04  0.531000D-03
  0.123500D+04  0.410800D-02
  0.280800D+03  0.210870D-01
  0.792700D+02  0.818530D-01
  0.255900D+02  0.234817D+00
  0.899700D+01  0.434401D+00
  0.331900D+01  0.346129D+00
  0.905900D+00  0.393780D-01
  0.364300D+00 -0.898300D-02
  0.128500D+00  0.238500D-02
   s    10 1.00
  0.823600D+04 -0.113000D-03
  0.123500D+04 -0.878000D-03
  0.280800D+03 -0.454000D-02
  0.792700D+02 -0.181330D-01
  0.255900D+02 -0.557600D-01
  0.899700D+01 -0.126895D+00
  0.331900D+01 -0.170352D+00
  0.905900D+00  0.140382D+00
  0.364300D+00  0.598684D+00
  0.128500D+00  0.395389D+00
   s     1 1.00
  0.905900D+00  0.100000D+01
   s     1 1.00
  0.364300D+00  0.100000D+01
   p     5 1.00
  0.187100D+02  0.140310D-01
  0.413300D+01  0.868660D-01
  0.120000D+01  0.290216D+00
  0.382700D+00  0.501008D+00
  0.120900D+00  0.343406D+00
   p     1 1.00
  0.382700D+00  0.100000D+01
   p     1 1.00
  0.120900D+00  0.100000D+01
   d     1 1.00
  0.109700D+01  0.100000D+01
   d     1 1.00
  0.318000D+00  0.100000D+01
   f     1 1.00
  0.761000D+00  0.100000D+01
  
  6  0
   s    10 1.00
  0.823600D+04  0.531000D-03
  0.123500D+04  0.410800D-02
  0.280800D+03  0.210870D-01
  0.792700D+02  0.818530D-01
  0.255900D+02  0.234817D+00
  0.899700D+01  0.434401D+00
  0.331900D+01  0.346129D+00
  0.905900D+00  0.393780D-01
  0.364300D+00 -0.898300D-02
  0.128500D+00  0.238500D-02
   s    10 1.00
  0.823600D+04 -0.113000D-03
  0.123500D+04 -0.878000D-03
  0.280800D+03 -0.454000D-02
  0.792700D+02 -0.181330D-01
  0.255900D+02 -0.557600D-01
  0.899700D+01 -0.126895D+00
  0.331900D+01 -0.170352D+00
  0.905900D+00  0.140382D+00
  0.364300D+00  0.598684D+00
  0.128500D+00  0.395389D+00
   s     1 1.00
  0.905900D+00  0.100000D+01
   s     1 1.00
  0.364300D+00  0.100000D+01
   p     5 1.00
  0.187100D+02  0.140310D-01
  0.413300D+01  0.868660D-01
  0.120000D+01  0.290216D+00
  0.382700D+00  0.501008D+00
  0.120900D+00  0.343406D+00
   p     1 1.00
  0.382700D+00  0.100000D+01
   p     1 1.00
  0.120900D+00  0.100000D+01
   d     1 1.00
  0.109700D+01  0.100000D+01
   d     1 1.00
  0.318000D+00  0.100000D+01
   f     1 1.00
  0.761000D+00  0.100000D+01
  
  7  0
   s    10 1.00
  0.823600D+04  0.531000D-03
  0.123500D+04  0.410800D-02
  0.280800D+03  0.210870D-01
  0.792700D+02  0.818530D-01
  0.255900D+02  0.234817D+00
  0.899700D+01  0.434401D+00
  0.331900D+01  0.346129D+00
  0.905900D+00  0.393780D-01
  0.364300D+00 -0.898300D-02
  0.128500D+00  0.238500D-02
   s    10 1.00
  0.823600D+04 -0.113000D-03
  0.123500D+04 -0.878000D-03
  0.280800D+03 -0.454000D-02
  0.792700D+02 -0.181330D-01
  0.255900D+02 -0.557600D-01
  0.899700D+01 -0.126895D+00
  0.331900D+01 -0.170352D+00
  0.905900D+00  0.140382D+00
  0.364300D+00  0.598684D+00
  0.128500D+00  0.395389D+00
   s     1 1.00
  0.905900D+00  0.100000D+01
   s     1 1.00
  0.364300D+00  0.100000D+01
   p     5 1.00
  0.187100D+02  0.140310D-01
  0.413300D+01  0.868660D-01
  0.120000D+01  0.290216D+00
  0.382700D+00  0.501008D+00
  0.120900D+00  0.343406D+00
   p     1 1.00
  0.382700D+00  0.100000D+01
   p     1 1.00
  0.120900D+00  0.100000D+01
   d     1 1.00
  0.109700D+01  0.100000D+01
   d     1 1.00
  0.318000D+00  0.100000D+01
   f     1 1.00
  0.761000D+00  0.100000D+01
  
  8  0
   s     4 1.00
  0.130100D+02  0.196850D-01
  0.196200D+01  0.137977D+00
  0.444600D+00  0.478148D+00
  0.122000D+00  0.501240D+00
   s     1 1.00
  0.122000D+00  0.100000D+01
   p     1 1.00
  0.727000D+00  0.100000D+01
  
  9  0
   s     4 1.00
  0.130100D+02  0.196850D-01
  0.196200D+01  0.137977D+00
  0.444600D+00  0.478148D+00
  0.122000D+00  0.501240D+00
   s     1 1.00
  0.122000D+00  0.100000D+01
   p     1 1.00
  0.727000D+00  0.100000D+01
  
 10  0
   s     4 1.00
  0.130100D+02  0.196850D-01
  0.196200D+01  0.137977D+00
  0.444600D+00  0.478148D+00
  0.122000D+00  0.501240D+00
   s     1 1.00
  0.122000D+00  0.100000D+01
   p     1 1.00
  0.727000D+00  0.100000D+01
  
 11  0
   s     4 1.00
  0.130100D+02  0.196850D-01
  0.196200D+01  0.137977D+00
  0.444600D+00  0.478148D+00
  0.122000D+00  0.501240D+00
   s     1 1.00
  0.122000D+00  0.100000D+01
   p     1 1.00
  0.727000D+00  0.100000D+01
  
 12  0
   s     4 1.00
  0.130100D+02  0.196850D-01
  0.196200D+01  0.137977D+00
  0.444600D+00  0.478148D+00
  0.122000D+00  0.501240D+00
   s     1 1.00
  0.122000D+00  0.100000D+01
   p     1 1.00
  0.727000D+00  0.100000D+01
  
 13  0
   s     4 1.00
  0.130100D+02  0.196850D-01
  0.196200D+01  0.137977D+00
  0.444600D+00  0.478148D+00
  0.122000D+00  0.501240D+00
   s     1 1.00
  0.122000D+00  0.100000D+01
   p     1 1.00
  0.727000D+00  0.100000D+01
  
 14  0
   s     4 1.00
  0.130100D+02  0.196850D-01
  0.196200D+01  0.137977D+00
  0.444600D+00  0.478148D+00
  0.122000D+00  0.501240D+00
   s     1 1.00
  0.122000D+00  0.100000D+01
   p     1 1.00
  0.727000D+00  0.100000D+01
  
[MO]
 Sym= __1_a__
 Ene=  0.000000000000000E+000
 Spin= Alpha
 Occup=    2.00000000000000     
                     1  2.241101807750910E-004
                     2  0.998067868295221     
                     3  3.968862015892470E-003
                     4  1.921571024691370E-003
                     5  5.502115617525010E-003
                     6  5.476366503217040E-003
                     7 -4.704680634819050E-003
                     8  1.244758454805080E-003
                     9 -7.609773583942430E-004
                    10  2.444350480154350E-004
                    11 -1.399928526704800E-004
                    12 -1.363870079541800E-003
                    13  3.063128624646330E-003
                    14 -7.550755139761030E-004
                    15 -6.373115750029887E-006
                    16 -2.044202807123560E-005
                    17  9.706283354264930E-007
                    18  7.629611467261560E-005
                    19  6.274825059581960E-005
                    20 -3.711199790096331E-004
                    21  1.491681319543240E-004
                    22 -7.523436759700820E-005
                    23  5.427292659910760E-005
                    24 -4.750567780334510E-004
                    25 -3.311773061606390E-005
                    26 -1.423361744284914E-004
                    27 -5.838101785556738E-005
                    28  3.661651969798720E-005
                    29 -1.413892949920810E-005
                    30 -1.006441434602083E-004
                    31 -5.371602612442570E-005
                    32 -3.871706032977960E-004
                    33  9.499481619222510E-004
                    34  2.420677597053070E-004
                    35 -1.081666897159110E-004
                    36 -4.435988902029020E-003
                    37 -1.021430476302380E-005
                    38 -7.530444857746019E-005
                    39  2.054594654243100E-004
                    40 -1.683872468165270E-005
                    41  2.197246082180330E-004
                    42  4.850350611755170E-003
                    43  7.799757179124610E-004
                    44 -1.075970902953980E-003
                    45 -2.250062169725619E-004
                    46  1.191701725262490E-005
                    47  3.591634977271600E-006
                    48  2.081318837182600E-004
                    49  4.726817137562270E-005
                    50  4.667721534155549E-004
                    51  1.662932790472370E-004
                    52 -2.500713150263140E-005
                    53 -5.231195471706840E-005
                    54 -3.522330726331810E-004
                    55  1.220403259987235E-005
                    56 -6.097588978890883E-005
                    57  9.812480833349079E-006
                    58  8.724677831467380E-006
                    59  9.614402637159191E-007
                    60 -3.488169664421082E-005
                    61  3.520996913072600E-005
                    62 -4.549918568788460E-004
                    63 -2.118150229962270E-003
                    64  5.418108606844520E-005
                    65  1.307230126111610E-003
                    66  5.557976953195840E-004
                    67 -8.927626859042221E-005
                    68 -6.255825177591890E-004
                    69  7.085230057007370E-004
                    70  7.553346808997770E-005
                    71  2.388110739734780E-004
                    72  1.852892259602830E-004
                    73 -3.328463624551870E-004
                    74 -1.064072364662130E-003
                    75 -7.561342920251474E-005
                    76 -1.662837089289850E-005
                    77  1.937992625639850E-005
                    78  6.841136025432161E-005
                    79 -8.738794196087250E-006
                    80  2.347301307544961E-004
                    81  1.867433791490350E-004
                    82 -3.576073662916800E-005
                    83 -8.204025528133160E-005
                    84  4.481530773254120E-005
                    85 -1.314589766440708E-005
                    86 -8.083218139280455E-005
                    87  2.106954827401106E-005
                    88 -7.681934704745420E-006
                    89  1.318747653573220E-005
                    90 -5.587917884227591E-005
                    91 -1.211732190733008E-005
                    92 -2.584999190617110E-004
                    93 -1.473392089281370E-003
                    94  1.417894723564340E-004
                    95  3.616596522980910E-004
                    96  6.256516508864500E-004
                    97 -9.074585905562050E-005
                    98  5.604125675322790E-004
                    99  4.803766811016560E-004
                   100  8.650972230560310E-005
                   101  1.969755214060520E-005
                   102 -1.115302422945940E-003
                   103 -3.499688459680540E-004
                   104  5.304151953447970E-004
                   105 -7.437996408326717E-005
                   106  9.148019983415690E-006
                   107 -1.624027135088580E-005
                   108  5.633842546333740E-005
                   109 -1.015144250217200E-005
                   110  1.228404705984264E-004
                   111 -1.883410815751790E-004
                   112  1.866262726169480E-005
                   113 -1.578080466206442E-004
                   114  5.944100408927010E-005
                   115  1.161911691350121E-006
                   116 -3.002153694650949E-005
                   117  2.055347842981044E-005
                   118  1.460963352449384E-005
                   119 -1.225237042244130E-005
                   120 -3.622596278713358E-005
                   121 -9.708047486611580E-006
                   122 -2.188483072639020E-004
                   123 -4.023796317370140E-004
                   124  7.569928730947830E-005
                   125  6.067551348537840E-004
                   126 -5.655404342550910E-004
                   127 -3.591707244479620E-005
                   128  8.935960774460190E-006
                   129  3.534158646385090E-004
                   130 -2.343526428091490E-005
                   131  9.440224480300029E-005
                   132  1.488030185642390E-003
                   133  1.550181831565540E-004
                   134 -3.056597583402770E-006
                   135  1.191786515573936E-005
                   136  1.457439083859920E-006
                   137 -4.156699271851160E-006
                   138 -5.393435719227540E-006
                   139  9.578765552874889E-006
                   140  1.367830545125195E-004
                   141  2.433576743228610E-004
                   142  9.831643411074569E-006
                   143 -2.494637589172800E-004
                   144 -2.043735225850050E-005
                   145 -1.859009893932849E-005
                   146 -1.725347881637714E-005
                   147  1.871584794325462E-006
                   148 -6.582922142346880E-006
                   149 -2.432091626554530E-006
                   150 -5.668180147240530E-005
                   151 -1.148711400516155E-006
                   152 -1.625060470580260E-004
                   153 -2.196541200018130E-004
                   154  2.943981111287680E-005
                   155  5.000327937236939E-004
                   156 -5.339201040020330E-004
                   157 -3.282175850042630E-005
                   158 -4.000251264587270E-005
                   159  8.916681969794840E-005
                   160 -2.855947501119220E-005
                   161  7.647390937344530E-005
                   162  1.980326978043280E-004
                   163  1.355264144963060E-004
                   164  5.291624052757130E-004
                   165 -3.212120200030656E-006
                   166  2.230849838846660E-006
                   167  3.562481711109040E-006
                   168  5.824649850730400E-006
                   169  8.197268139375610E-006
                   170  1.464778079148587E-005
                   171 -1.412336392626430E-004
                   172 -5.272479177649590E-006
                   173 -1.147114956045962E-004
                   174 -7.673711035222380E-006
                   175  3.720249026257795E-006
                   176 -1.233568329404374E-005
                   177  2.844391869040046E-006
                   178  1.676659661228700E-006
                   179  1.049105635111560E-006
                   180 -3.207325334681387E-005
                   181 -2.488902088384312E-006
                   182 -1.271560088164030E-004
                   183 -3.935083379433330E-004
                   184  2.787138691153590E-005
                   185  1.548665628606430E-004
                   186 -1.672547209386570E-005
                   187 -4.265528166631070E-005
                   188 -3.058916540178970E-005
                   189  9.340496707917560E-005
                   190  1.979418157782940E-005
                   191  1.308259273658140E-004
                   192 -3.696736865499790E-004
                   193 -1.118329536277560E-004
                   194  7.102036734152410E-004
                   195 -1.017353519437860E-005
                   196  1.090844335312020E-006
                   197 -2.725518296818330E-008
                   198  4.029433552263900E-006
                   199 -2.156596868484700E-006
                   200 -1.150522651305222E-004
                   201 -1.079410842998450E-004
                   202  1.605593355223260E-006
                   203  6.430013192772941E-005
                   204  1.721865448349070E-005
                   205  1.229305782058248E-006
                   206  1.001923376649429E-006
                   207  2.871874615542139E-006
                   208  8.536301931893879E-006
                   209 -4.091838547715440E-007
                   210 -5.529172889817734E-006
                   211 -2.626734158870566E-006
                   212  2.679712444708760E-003
                   213 -2.143730459492750E-003
                   214  1.734861567810690E-004
                   215  3.598080394141710E-004
                   216  2.906904493924210E-004
                   217  2.880607674206020E-003
                   218 -2.245154779510480E-003
                   219  1.942397382233520E-004
                   220  2.233779420178380E-004
                   221 -4.386709214632070E-004
                   222 -5.207163576083260E-004
                   223 -2.888539956147280E-004
                   224 -6.894807806907210E-005
                   225  8.984785574806460E-006
                   226  3.512328859756870E-005
                   227 -4.778454899363260E-004
                   228 -3.335401602105050E-004
                   229 -5.345106212781710E-005
                   230  1.182312137441850E-005
                   231 -4.047552703998950E-005
                   232 -1.016872404149250E-004
                   233 -5.272042229215850E-004
                   234  2.398781105589830E-006
                   235 -1.204683388733230E-006
                   236 -6.363195316985180E-006
                   237 -1.330377503939080E-004
                   238 -4.097662363480460E-004
                   239  8.497576137857881E-006
                   240 -2.166837877819760E-006
                   241  1.285483005509700E-005
                   242  1.749102002819640E-005
                   243  1.156051228234200E-004
                   244  2.975145016425320E-005
                   245  1.770218229259960E-006
                   246  8.853198186506750E-007
 Sym= __2_a__
 Ene=  0.000000000000000E+000
 Spin= Alpha
 Occup=    2.00000000000000     
                     1 -1.966953746200470E-005
                     2 -8.370616931983440E-005
                     3  1.957752164806650E-003
                     4 -1.312886972433790E-005
                     5  1.243392198740390E-003
                     6  1.932352265958550E-003
                     7  2.842616423134500E-004
                     8 -1.004223767298470E-004
                     9 -1.496283353842580E-004
                    10  9.878767584814340E-005
                    11 -1.069515342280420E-005
                    12  4.562977402201970E-005
                    13  5.369445044598820E-005
                    14  3.653053863386630E-005
                    15 -7.189976126532496E-005
                    16  5.683371906474860E-006
                    17 -4.599543869901990E-006
                    18  4.028408709567080E-005
                    19 -2.824620146137370E-006
                    20  1.827182631963455E-004
                    21 -3.422545557369560E-005
                    22  1.441162782435100E-005
                    23  9.997297270108740E-005
                    24 -4.309650100475590E-005
                    25 -3.024950774117084E-005
                    26  1.386715918361800E-004
                    27 -5.077566362996676E-005
                    28  4.920272446186060E-007
                    29  8.120059531664060E-007
                    30  1.285082872467244E-004
                    31  3.620244941415103E-005
                    32   1.00096659645886     
                    33  8.776083184967859E-003
                    34  2.784968006514210E-003
                    35 -8.227362811484590E-003
                    36 -2.581457415667640E-003
                    37  6.884222789433399E-004
                    38  4.166518937559170E-006
                    39  1.097749178748250E-003
                    40 -2.246255085371490E-004
                    41 -4.242319277583500E-005
                    42  3.439000623797730E-003
                    43 -1.277202953462310E-004
                    44 -9.571916093671701E-005
                    45  2.966187665337030E-004
                    46  1.013380973945310E-005
                    47 -7.319979195338950E-006
                    48  4.164231380748020E-004
                    49 -2.361523842263490E-005
                    50 -1.042926359442753E-003
                    51 -6.763501038070720E-005
                    52  3.361728215268920E-005
                    53 -1.143921426425088E-004
                    54  3.071291271656440E-005
                    55 -4.459004348343828E-006
                    56  3.110188524367929E-004
                    57 -8.836706635907133E-006
                    58 -6.681610017780740E-006
                    59 -1.826881126127200E-006
                    60  8.169729177976860E-005
                    61  1.837246434433989E-005
                    62  1.230947672678600E-002
                    63 -1.875465987587780E-003
                    64 -3.013786137166230E-004
                    65  3.093996262274040E-003
                    66 -1.414512820261010E-004
                    67  1.166527394015090E-004
                    68  2.648372546195980E-004
                    69  3.207242911611840E-005
                    70 -5.645712498234480E-006
                    71  4.756483781650240E-004
                    72  2.591144347199830E-004
                    73 -1.038859381823210E-006
                    74 -1.856456164189680E-003
                    75 -1.066031045819436E-005
                    76  2.579471247021970E-005
                    77  9.358236084949351E-006
                    78 -3.679543505351940E-005
                    79 -4.747929188456560E-006
                    80 -4.365785447615430E-004
                    81 -4.528241569868700E-004
                    82  3.387194488409930E-006
                    83  7.712455051402660E-004
                    84  1.620075055517540E-007
                    85  4.991278203062230E-005
                    86  1.099597071109098E-004
                    87  3.988095277809990E-006
                    88 -1.577588647798718E-005
                    89 -1.015428685992460E-005
                    90 -2.727828603828277E-005
                    91  4.267422982356615E-006
                    92  1.290133592648440E-002
                    93 -1.834773587748460E-003
                    94 -3.238304444853870E-004
                    95  3.203518736297120E-003
                    96 -1.593822121924630E-004
                    97  1.269400789331380E-004
                    98 -2.569911433923250E-004
                    99  1.925793594157870E-005
                   100  1.186700203718030E-005
                   101 -5.651548062125000E-004
                   102  7.045602734172660E-005
                   103 -5.771662453952160E-005
                   104  1.813343419661830E-003
                   105 -8.468200692442199E-006
                   106 -2.271105522353030E-005
                   107 -7.143655307787090E-006
                   108 -3.486334210173380E-005
                   109 -4.624294738468610E-006
                   110 -3.970658430232342E-004
                   111  4.804572243723800E-004
                   112 -2.737553213777770E-006
                   113  7.465946984174120E-004
                   114 -6.954373802513770E-006
                   115 -5.149805042617020E-005
                   116  1.042512369169727E-004
                   117 -1.977524128664491E-006
                   118  1.774170455431608E-005
                   119  3.702571293966460E-006
                   120 -3.162606345811069E-005
                   121  5.219137416949414E-006
                   122 -1.525195846735880E-004
                   123 -7.302305239225919E-004
                   124  2.480938229407510E-004
                   125 -2.980226396232370E-004
                   126 -1.905657068165080E-004
                   127  2.511331054884500E-005
                   128 -4.714656200868560E-005
                   129  6.026653887766770E-004
                   130 -6.105578264716820E-006
                   131  5.879637318184020E-005
                   132  6.558111452085790E-004
                   133 -2.009905395144570E-006
                   134  3.703828536618090E-004
                   135  3.936582597714114E-009
                   136  4.186823226205100E-005
                   137  2.017145223705410E-007
                   138 -3.280642010802200E-005
                   139 -1.878704157328720E-006
                   140  1.965271763944898E-004
                   141 -2.619708011959930E-004
                   142  3.045525726328560E-006
                   143 -2.639977586647180E-004
                   144  1.510387767234020E-006
                   145 -1.842987363247764E-005
                   146  1.457372756782087E-005
                   147 -2.901752968417891E-007
                   148 -1.259677518515664E-005
                   149 -2.482858152713870E-006
                   150 -2.441296822522848E-005
                   151 -3.799120664750709E-007
                   152 -1.382371509757840E-004
                   153 -7.039751797707940E-004
                   154  2.559652843307630E-004
                   155 -3.418671624390810E-004
                   156 -1.844270528535220E-004
                   157  1.874784344338100E-005
                   158  3.843306596934150E-005
                   159  5.935377012340900E-004
                   160  2.375797116950100E-006