[Molden Format]
[Atoms] AU
  N     1    7    -0.0577066600   -4.3198983100    0.0000000000        
  C     2    6     0.0292385900   -1.8134826500    0.0000000000        
  C     3    6    -2.3178975600   -0.4240350900    0.0000000000        
  C     4    6     2.3553009600   -0.3944216600    0.0000000000        
  C     5    6    -2.2903243200    2.1533015900    0.0000000000        
  C     6    6     2.2995835900    2.1822912800    0.0000000000        
  C     7    6    -0.0044270300    3.4871266800    0.0000000000        
  H     8    1    -2.2017518600   -5.5421083200    0.0000000000        
  H     9    1     1.6274351200   -5.3020584700    0.0000000000        
  H    10    1    -4.0433102600   -1.4726172400    0.0000000000        
  H    11    1     4.1094870500   -1.4029814100    0.0000000000        
  H    12    1    -4.0426873900    3.1742953100    0.0000000000        
  H    13    1     4.0372368000    3.2271404300    0.0000000000        
  H    14    1    -0.0154568000    5.5141749100    0.0000000000        
[5D]
[7F]
[GTO]
  1  0
   s    12 1.00
  0.114200D+05  0.172695D-04
  0.171200D+04  0.134411D-03
  0.389300D+03  0.694561D-03
  0.110000D+03  0.278531D-02
  0.355700D+02  0.863457D-02
  0.125400D+02  0.199805D-01
  0.464400D+01  0.262908D-01
  0.129300D+01 -0.243845D-01
  0.511800D+00 -0.924934D-01
  0.178700D+00 -0.339683D+00
  0.246240D-01  0.345111D+00
  0.112530D-01  0.752750D+00
   s    10 1.00
  0.114200D+05  0.523000D-03
  0.171200D+04  0.404500D-02
  0.389300D+03  0.207750D-01
  0.110000D+03  0.807269D-01
  0.355700D+02  0.233074D+00
  0.125400D+02  0.433501D+00
  0.464400D+01  0.347472D+00
  0.129300D+01  0.412620D-01
  0.511800D+00 -0.850799D-02
  0.178700D+00  0.238400D-02
   s    10 1.00
  0.114200D+05 -0.115000D-03
  0.171200D+04 -0.895000D-03
  0.389300D+03 -0.462400D-02
  0.110000D+03 -0.185280D-01
  0.355700D+02 -0.573390D-01
  0.125400D+02 -0.132076D+00
  0.464400D+01 -0.172510D+00
  0.129300D+01  0.151814D+00
  0.511800D+00  0.599944D+00
  0.178700D+00  0.387462D+00
   s     1 1.00
  0.129300D+01  0.100000D+01
   s     1 1.00
  0.178700D+00  0.100000D+01
   p     5 1.00
  0.266300D+02  0.146700D-01
  0.594800D+01  0.917640D-01
  0.174200D+01  0.298683D+00
  0.555000D+00  0.498487D+00
  0.172500D+00  0.337023D+00
   p     1 1.00
  0.174200D+01  0.100000D+01
   p     1 1.00
  0.555000D+00  0.100000D+01
   d     1 1.00
  0.165400D+01  0.100000D+01
   d     1 1.00
  0.469000D+00  0.100000D+01
   f     1 1.00
  0.109300D+01  0.100000D+01
  
  2  0
   s    10 1.00
  0.823600D+04  0.531000D-03
  0.123500D+04  0.410800D-02
  0.280800D+03  0.210870D-01
  0.792700D+02  0.818530D-01
  0.255900D+02  0.234817D+00
  0.899700D+01  0.434401D+00
  0.331900D+01  0.346129D+00
  0.905900D+00  0.393780D-01
  0.364300D+00 -0.898300D-02
  0.128500D+00  0.238500D-02
   s    10 1.00
  0.823600D+04 -0.113000D-03
  0.123500D+04 -0.878000D-03
  0.280800D+03 -0.454000D-02
  0.792700D+02 -0.181330D-01
  0.255900D+02 -0.557600D-01
  0.899700D+01 -0.126895D+00
  0.331900D+01 -0.170352D+00
  0.905900D+00  0.140382D+00
  0.364300D+00  0.598684D+00
  0.128500D+00  0.395389D+00
   s     1 1.00
  0.905900D+00  0.100000D+01
   s     1 1.00
  0.364300D+00  0.100000D+01
   p     5 1.00
  0.187100D+02  0.140310D-01
  0.413300D+01  0.868660D-01
  0.120000D+01  0.290216D+00
  0.382700D+00  0.501008D+00
  0.120900D+00  0.343406D+00
   p     1 1.00
  0.382700D+00  0.100000D+01
   p     1 1.00
  0.120900D+00  0.100000D+01
   d     1 1.00
  0.109700D+01  0.100000D+01
   d     1 1.00
  0.318000D+00  0.100000D+01
   f     1 1.00
  0.761000D+00  0.100000D+01
  
  3  0
   s    10 1.00
  0.823600D+04  0.531000D-03
  0.123500D+04  0.410800D-02
  0.280800D+03  0.210870D-01
  0.792700D+02  0.818530D-01
  0.255900D+02  0.234817D+00
  0.899700D+01  0.434401D+00
  0.331900D+01  0.346129D+00
  0.905900D+00  0.393780D-01
  0.364300D+00 -0.898300D-02
  0.128500D+00  0.238500D-02
   s    10 1.00
  0.823600D+04 -0.113000D-03
  0.123500D+04 -0.878000D-03
  0.280800D+03 -0.454000D-02
  0.792700D+02 -0.181330D-01
  0.255900D+02 -0.557600D-01
  0.899700D+01 -0.126895D+00
  0.331900D+01 -0.170352D+00
  0.905900D+00  0.140382D+00
  0.364300D+00  0.598684D+00
  0.128500D+00  0.395389D+00
   s     1 1.00
  0.905900D+00  0.100000D+01
   s     1 1.00
  0.364300D+00  0.100000D+01
   p     5 1.00
  0.187100D+02  0.140310D-01
  0.413300D+01  0.868660D-01
  0.120000D+01  0.290216D+00
  0.382700D+00  0.501008D+00
  0.120900D+00  0.343406D+00
   p     1 1.00
  0.382700D+00  0.100000D+01
   p     1 1.00
  0.120900D+00  0.100000D+01
   d     1 1.00
  0.109700D+01  0.100000D+01
   d     1 1.00
  0.318000D+00  0.100000D+01
   f     1 1.00
  0.761000D+00  0.100000D+01
  
  4  0
   s    10 1.00
  0.823600D+04  0.531000D-03
  0.123500D+04  0.410800D-02
  0.280800D+03  0.210870D-01
  0.792700D+02  0.818530D-01
  0.255900D+02  0.234817D+00
  0.899700D+01  0.434401D+00
  0.331900D+01  0.346129D+00
  0.905900D+00  0.393780D-01
  0.364300D+00 -0.898300D-02
  0.128500D+00  0.238500D-02
   s    10 1.00
  0.823600D+04 -0.113000D-03
  0.123500D+04 -0.878000D-03
  0.280800D+03 -0.454000D-02
  0.792700D+02 -0.181330D-01
  0.255900D+02 -0.557600D-01
  0.899700D+01 -0.126895D+00
  0.331900D+01 -0.170352D+00
  0.905900D+00  0.140382D+00
  0.364300D+00  0.598684D+00
  0.128500D+00  0.395389D+00
   s     1 1.00
  0.905900D+00  0.100000D+01
   s     1 1.00
  0.364300D+00  0.100000D+01
   p     5 1.00
  0.187100D+02  0.140310D-01
  0.413300D+01  0.868660D-01
  0.120000D+01  0.290216D+00
  0.382700D+00  0.501008D+00
  0.120900D+00  0.343406D+00
   p     1 1.00
  0.382700D+00  0.100000D+01
   p     1 1.00
  0.120900D+00  0.100000D+01
   d     1 1.00
  0.109700D+01  0.100000D+01
   d     1 1.00
  0.318000D+00  0.100000D+01
   f     1 1.00
  0.761000D+00  0.100000D+01
  
  5  0
   s    10 1.00
  0.823600D+04  0.531000D-03
  0.123500D+04  0.410800D-02
  0.280800D+03  0.210870D-01
  0.792700D+02  0.818530D-01
  0.255900D+02  0.234817D+00
  0.899700D+01  0.434401D+00
  0.331900D+01  0.346129D+00
  0.905900D+00  0.393780D-01
  0.364300D+00 -0.898300D-02
  0.128500D+00  0.238500D-02
   s    10 1.00
  0.823600D+04 -0.113000D-03
  0.123500D+04 -0.878000D-03
  0.280800D+03 -0.454000D-02
  0.792700D+02 -0.181330D-01
  0.255900D+02 -0.557600D-01
  0.899700D+01 -0.126895D+00
  0.331900D+01 -0.170352D+00
  0.905900D+00  0.140382D+00
  0.364300D+00  0.598684D+00
  0.128500D+00  0.395389D+00
   s     1 1.00
  0.905900D+00  0.100000D+01
   s     1 1.00
  0.364300D+00  0.100000D+01
   p     5 1.00
  0.187100D+02  0.140310D-01
  0.413300D+01  0.868660D-01
  0.120000D+01  0.290216D+00
  0.382700D+00  0.501008D+00
  0.120900D+00  0.343406D+00
   p     1 1.00
  0.382700D+00  0.100000D+01
   p     1 1.00
  0.120900D+00  0.100000D+01
   d     1 1.00
  0.109700D+01  0.100000D+01
   d     1 1.00
  0.318000D+00  0.100000D+01
   f     1 1.00
  0.761000D+00  0.100000D+01
  
  6  0
   s    10 1.00
  0.823600D+04  0.531000D-03
  0.123500D+04  0.410800D-02
  0.280800D+03  0.210870D-01
  0.792700D+02  0.818530D-01
  0.255900D+02  0.234817D+00
  0.899700D+01  0.434401D+00
  0.331900D+01  0.346129D+00
  0.905900D+00  0.393780D-01
  0.364300D+00 -0.898300D-02
  0.128500D+00  0.238500D-02
   s    10 1.00
  0.823600D+04 -0.113000D-03
  0.123500D+04 -0.878000D-03
  0.280800D+03 -0.454000D-02
  0.792700D+02 -0.181330D-01
  0.255900D+02 -0.557600D-01
  0.899700D+01 -0.126895D+00
  0.331900D+01 -0.170352D+00
  0.905900D+00  0.140382D+00
  0.364300D+00  0.598684D+00
  0.128500D+00  0.395389D+00
   s     1 1.00
  0.905900D+00  0.100000D+01
   s     1 1.00
  0.364300D+00  0.100000D+01
   p     5 1.00
  0.187100D+02  0.140310D-01
  0.413300D+01  0.868660D-01
  0.120000D+01  0.290216D+00
  0.382700D+00  0.501008D+00
  0.120900D+00  0.343406D+00
   p     1 1.00
  0.382700D+00  0.100000D+01
   p     1 1.00
  0.120900D+00  0.100000D+01
   d     1 1.00
  0.109700D+01  0.100000D+01
   d     1 1.00
  0.318000D+00  0.100000D+01
   f     1 1.00
  0.761000D+00  0.100000D+01
  
  7  0
   s    10 1.00
  0.823600D+04  0.531000D-03
  0.123500D+04  0.410800D-02
  0.280800D+03  0.210870D-01
  0.792700D+02  0.818530D-01
  0.255900D+02  0.234817D+00
  0.899700D+01  0.434401D+00
  0.331900D+01  0.346129D+00
  0.905900D+00  0.393780D-01
  0.364300D+00 -0.898300D-02
  0.128500D+00  0.238500D-02
   s    10 1.00
  0.823600D+04 -0.113000D-03
  0.123500D+04 -0.878000D-03
  0.280800D+03 -0.454000D-02
  0.792700D+02 -0.181330D-01
  0.255900D+02 -0.557600D-01
  0.899700D+01 -0.126895D+00
  0.331900D+01 -0.170352D+00
  0.905900D+00  0.140382D+00
  0.364300D+00  0.598684D+00
  0.128500D+00  0.395389D+00
   s     1 1.00
  0.905900D+00  0.100000D+01
   s     1 1.00
  0.364300D+00  0.100000D+01
   p     5 1.00
  0.187100D+02  0.140310D-01
  0.413300D+01  0.868660D-01
  0.120000D+01  0.290216D+00
  0.382700D+00  0.501008D+00
  0.120900D+00  0.343406D+00
   p     1 1.00
  0.382700D+00  0.100000D+01
   p     1 1.00
  0.120900D+00  0.100000D+01
   d     1 1.00
  0.109700D+01  0.100000D+01
   d     1 1.00
  0.318000D+00  0.100000D+01
   f     1 1.00
  0.761000D+00  0.100000D+01
  
  8  0
   s     4 1.00
  0.130100D+02  0.196850D-01
  0.196200D+01  0.137977D+00
  0.444600D+00  0.478148D+00
  0.122000D+00  0.501240D+00
   s     1 1.00
  0.122000D+00  0.100000D+01
   p     1 1.00
  0.727000D+00  0.100000D+01
  
  9  0
   s     4 1.00
  0.130100D+02  0.196850D-01
  0.196200D+01  0.137977D+00
  0.444600D+00  0.478148D+00
  0.122000D+00  0.501240D+00
   s     1 1.00
  0.122000D+00  0.100000D+01
   p     1 1.00
  0.727000D+00  0.100000D+01
  
 10  0
   s     4 1.00
  0.130100D+02  0.196850D-01
  0.196200D+01  0.137977D+00
  0.444600D+00  0.478148D+00
  0.122000D+00  0.501240D+00
   s     1 1.00
  0.122000D+00  0.100000D+01
   p     1 1.00
  0.727000D+00  0.100000D+01
  
 11  0
   s     4 1.00
  0.130100D+02  0.196850D-01
  0.196200D+01  0.137977D+00
  0.444600D+00  0.478148D+00
  0.122000D+00  0.501240D+00
   s     1 1.00
  0.122000D+00  0.100000D+01
   p     1 1.00
  0.727000D+00  0.100000D+01
  
 12  0
   s     4 1.00
  0.130100D+02  0.196850D-01
  0.196200D+01  0.137977D+00
  0.444600D+00  0.478148D+00
  0.122000D+00  0.501240D+00
   s     1 1.00
  0.122000D+00  0.100000D+01
   p     1 1.00
  0.727000D+00  0.100000D+01
  
 13  0
   s     4 1.00
  0.130100D+02  0.196850D-01
  0.196200D+01  0.137977D+00
  0.444600D+00  0.478148D+00
  0.122000D+00  0.501240D+00
   s     1 1.00
  0.122000D+00  0.100000D+01
   p     1 1.00
  0.727000D+00  0.100000D+01
  
 14  0
   s     4 1.00
  0.130100D+02  0.196850D-01
  0.196200D+01  0.137977D+00
  0.444600D+00  0.478148D+00
  0.122000D+00  0.501240D+00
   s     1 1.00
  0.122000D+00  0.100000D+01
   p     1 1.00
  0.727000D+00  0.100000D+01
  
[MO]
 Sym= __1_A'_
 Ene=  0.000000000000000E+000
 Spin= Alpha
 Occup=    2.00000000000000     
                     1  5.856156907114214E-006
                     2  0.998407461109054     
                     3  5.013781004361018E-003
                     4  1.743401335025230E-003
                     5  3.072911252277611E-003
                     6  1.700098058436898E-003
                     7  5.477682005040448E-003
                     8  0.000000000000000E+000
                     9 -1.087101209694538E-004
                    10 -2.833786848522257E-004
                    11  0.000000000000000E+000
                    12 -8.405886208170672E-004
                    13 -8.404448252715535E-004
                    14  0.000000000000000E+000
                    15 -1.523993134097114E-004
                    16  0.000000000000000E+000
                    17  0.000000000000000E+000
                    18 -1.998589105666606E-004
                    19 -5.754370015369082E-005
                    20  3.227271640386909E-004
                    21  0.000000000000000E+000
                    22  0.000000000000000E+000
                    23 -3.795924545768680E-004
                    24  1.903284783123815E-004
                    25  0.000000000000000E+000
                    26 -2.007737352522310E-005
                    27 -5.978912640075460E-005
                    28  0.000000000000000E+000
                    29  0.000000000000000E+000
                    30  1.797897874238173E-005
                    31 -1.377739523744351E-004
                    32 -3.380346159571310E-004
                    33  2.155541796471430E-003
                    34  2.043566683989202E-004
                    35 -3.180974421182105E-004
                    36 -1.880912856809812E-004
                    37 -5.818533079595416E-003
                    38  0.000000000000000E+000
                    39  1.074051978334825E-004
                    40  3.147704949893734E-004
                    41  0.000000000000000E+000
                    42 -7.133388801021083E-004
                    43  4.892452824416486E-003
                    44  0.000000000000000E+000
                    45 -3.552161704565965E-005
                    46  0.000000000000000E+000
                    47  0.000000000000000E+000
                    48 -2.923232087906670E-004
                    49 -1.257138444344070E-005
                    50 -3.450516547959226E-004
                    51  0.000000000000000E+000
                    52  0.000000000000000E+000
                    53  6.029135724139090E-005
                    54  2.292042306639028E-004
                    55  0.000000000000000E+000
                    56 -3.040271221504116E-006
                    57 -2.677009667487710E-005
                    58  0.000000000000000E+000
                    59  0.000000000000000E+000
                    60  4.012804434707748E-005
                    61 -1.215104509391293E-004
                    62 -2.886833754600281E-004
                    63 -1.634366222758850E-003
                    64 -4.898739336441472E-006
                    65  1.060432177762599E-003
                    66 -6.787716896016571E-004
                    67  6.264361388186526E-004
                    68  0.000000000000000E+000
                    69  9.473715956921522E-005
                    70  6.983910752152824E-004
                    71  0.000000000000000E+000
                    72 -1.238295276676997E-003
                    73  2.738308671934972E-004
                    74  0.000000000000000E+000
                    75 -2.298675159130657E-005
                    76  0.000000000000000E+000
                    77  0.000000000000000E+000
                    78 -7.442426458087678E-005
                    79 -1.083803241179219E-005
                    80 -5.095773128782957E-005
                    81  0.000000000000000E+000
                    82  0.000000000000000E+000
                    83 -2.558839996124054E-005
                    84  1.220860595026799E-004
                    85  0.000000000000000E+000
                    86  1.638532496298019E-005
                    87 -4.648207144398353E-005
                    88  0.000000000000000E+000
                    89  0.000000000000000E+000
                    90 -3.691499071675771E-005
                    91 -1.077624830355292E-004
                    92 -2.260597533523388E-004
                    93 -1.553130927477334E-003
                    94  1.120944998511462E-004
                    95  3.824544412366678E-004
                    96  7.282230920359222E-004
                    97  8.546401727876565E-004
                    98  0.000000000000000E+000
                    99  1.247764399481509E-004
                   100  4.451332954152885E-004
                   101  0.000000000000000E+000
                   102  5.601022310197622E-004
                   103 -7.521920007492735E-004
                   104  0.000000000000000E+000
                   105 -9.074299253189420E-006
                   106  0.000000000000000E+000
                   107  0.000000000000000E+000
                   108 -9.194089595965384E-005
                   109 -1.601369092429428E-006
                   110  2.252614804795837E-005
                   111  0.000000000000000E+000
                   112  0.000000000000000E+000
                   113 -2.106898536628998E-005
                   114 -9.375116677421246E-005
                   115  0.000000000000000E+000
                   116 -2.160423449487502E-005
                   117 -3.261345837431989E-005
                   118  0.000000000000000E+000
                   119  0.000000000000000E+000
                   120 -5.443728212331264E-006
                   121 -6.728795312997780E-005
                   122 -1.927485988701030E-004
                   123 -2.710328658509606E-004
                   124  1.333135534203356E-004
                   125  1.912798802856651E-004
                   126  1.038679972657382E-005
                   127 -6.043006553292545E-004
                   128  0.000000000000000E+000
                   129  1.146313752700694E-004
                   130  4.788807299675489E-004
                   131  0.000000000000000E+000
                   132  1.709655132155607E-004
                   133  1.225822621775705E-003
                   134  0.000000000000000E+000
                   135  1.240831799720294E-005
                   136  0.000000000000000E+000
                   137  0.000000000000000E+000
                   138  2.609471357374576E-005
                   139 -6.305070797318200E-007
                   140  1.278657459405968E-004
                   141  0.000000000000000E+000
                   142  0.000000000000000E+000
                   143  2.469384970617880E-004
                   144  1.723544524455248E-004
                   145  0.000000000000000E+000
                   146 -7.753662008774542E-006
                   147 -4.207173819577119E-005
                   148  0.000000000000000E+000
                   149  0.000000000000000E+000
                   150  2.884894685893568E-006
                   151 -3.050754411512023E-005
                   152 -1.702052001938257E-004
                   153 -1.593813380263794E-004
                   154  8.472767434744003E-005
                   155  2.684790337092498E-004
                   156 -2.792390422256053E-005
                   157 -6.246375383578743E-004
                   158  0.000000000000000E+000
                   159 -1.770617917410266E-005
                   160  1.981644161089206E-004
                   161  0.000000000000000E+000
                   162  4.640847587036752E-004
                   163  3.375857941999831E-004
                   164  0.000000000000000E+000
                   165  2.604257295257569E-006
                   166  0.000000000000000E+000
                   167  0.000000000000000E+000
                   168  7.659776844322759E-006
                   169 -9.044460296702280E-007
                   170  1.098303601943332E-004
                   171  0.000000000000000E+000
                   172  0.000000000000000E+000
                   173  9.415097079824129E-005
                   174 -1.074056129229870E-004
                   175  0.000000000000000E+000
                   176  2.150280633473976E-006
                   177 -2.319685368244033E-005
                   178  0.000000000000000E+000
                   179  0.000000000000000E+000
                   180 -1.081888684199379E-006
                   181 -2.399926944509565E-005
                   182 -1.418427799096454E-004
                   183 -3.959935119768811E-004
                   184  4.043194042311669E-005
                   185  1.874733793735840E-004
                   186 -2.013640138962477E-005
                   187 -4.457857009164287E-005
                   188  0.000000000000000E+000
                   189  1.093266046754896E-004
                   190  4.397396878335095E-005
                   191  0.000000000000000E+000
                   192  5.330748096974517E-004
                   193 -7.124769295169536E-005
                   194  0.000000000000000E+000
                   195 -8.398129690168939E-007
                   196  0.000000000000000E+000
                   197  0.000000000000000E+000
                   198 -1.603710160381542E-005
                   199 -1.064938827281900E-008
                   200  1.196761498467742E-005
                   201  0.000000000000000E+000
                   202  0.000000000000000E+000
                   203 -7.981040778311330E-005
                   204 -7.848979750226358E-005
                   205  0.000000000000000E+000
                   206 -4.554131771738417E-006
                   207 -5.301105905407961E-006
                   208  0.000000000000000E+000
                   209  0.000000000000000E+000
                   210 -9.745694895454718E-007
                   211 -7.008318740662933E-006
                   212  6.124447874865684E-004
                   213 -5.193821302609149E-004
                   214  2.944218275714089E-004
                   215  2.341485706722213E-004
                   216  0.000000000000000E+000
                   217  2.730624137288504E-003
                   218 -1.860357319917599E-003
                   219 -4.095161654293279E-004
                   220  3.126307999011598E-004
                   221  0.000000000000000E+000
                   222 -4.472849490064998E-004
                   223 -4.927623824809525E-004
                   224 -1.335991291479139E-005
                   225 -3.961396178201495E-005
                   226  0.000000000000000E+000
                   227 -4.593754785391427E-004
                   228 -2.851777844190342E-004
                   229 -8.406482187605851E-007
                   230 -4.106954817983471E-005
                   231  0.000000000000000E+000
                   232 -1.561986422025378E-004
                   233 -4.052548806733239E-004
                   234 -2.210284787025302E-006
                   235  4.446380097134088E-006
                   236  0.000000000000000E+000
                   237 -1.753342129467209E-004
                   238 -4.497082005459304E-004
                   239  2.704475833527808E-006
                   240 -1.405016982411409E-006
                   241  0.000000000000000E+000
                   242  3.484136740814663E-005
                   243 -6.984802603440114E-005
                   244  1.213185576489372E-006
                   245  1.854636002876528E-005
                   246  0.000000000000000E+000
 Sym= __2_A'_
 Ene=  0.000000000000000E+000
 Spin= Alpha
 Occup=    2.00000000000000     
                     1 -5.500383610166009E-005
                     2 -2.702134982829000E-004
                     3  2.643700682343452E-003
                     4  1.260359670875255E-004
                     5  1.318612168062419E-003
                     6 -1.629017261174580E-004
                     7  3.184863979695359E-003
                     8  0.000000000000000E+000
                     9 -4.464609536314831E-006
                    10 -8.094268064518297E-005
                    11  0.000000000000000E+000
                    12  1.076262008202715E-005
                    13 -4.954580032428437E-004
                    14  0.000000000000000E+000
                    15  3.706671137372975E-005
                    16  0.000000000000000E+000
                    17  0.000000000000000E+000
                    18 -6.522546590338841E-005
                    19  8.260655914939215E-006
                    20 -1.388856720770269E-004
                    21  0.000000000000000E+000
                    22  0.000000000000000E+000
                    23  2.766472517945410E-004
                    24 -8.956928027246544E-005
                    25  0.000000000000000E+000
                    26 -9.345906608331105E-006
                    27  1.053750035540424E-004
                    28  0.000000000000000E+000
                    29  0.000000000000000E+000
                    30 -4.466222028466699E-005
                    31  1.381953575640127E-004
                    32   1.00104133030239     
                    33  9.344844206899319E-003
                    34  2.629860519934134E-003
                    35 -7.815254689629065E-003
                    36 -1.746216164622123E-005
                    37 -4.060066521213817E-003
                    38  0.000000000000000E+000
                    39 -1.624103746229585E-004
                    40  7.345916259593918E-004
                    41  0.000000000000000E+000
                    42 -6.753112296078083E-005
                    43  4.419320557104924E-003
                    44  0.000000000000000E+000
                    45 -5.883068075247953E-004
                    46  0.000000000000000E+000
                    47  0.000000000000000E+000
                    48 -2.358015432828520E-004
                    49  3.652322693329339E-005
                    50  4.992348681839754E-004
                    51  0.000000000000000E+000
                    52  0.000000000000000E+000
                    53 -7.711134268677248E-004
                    54 -2.682267358938910E-004
                    55  0.000000000000000E+000
                    56  1.011535249102060E-005
                    57  8.915759321468251E-005
                    58  0.000000000000000E+000
                    59  0.000000000000000E+000
                    60 -2.815522018798842E-005
                    61  4.173778617477073E-004
                    62  7.234969914268772E-003
                    63 -2.057238100442082E-003
                    64 -2.359776898878212E-004
                    65  2.752647097628578E-003
                    66  4.999281588500344E-005
                    67  3.030555540774542E-005
                    68  0.000000000000000E+000
                    69  5.099024683542376E-004
                    70  1.169005508211514E-004
                    71  0.000000000000000E+000
                    72 -2.150792020781799E-003
                    73  2.268997464677495E-004
                    74  0.000000000000000E+000
                    75  3.524338830358106E-005
                    76  0.000000000000000E+000
                    77  0.000000000000000E+000
                    78 -5.229587348310010E-006
                    79  7.629290786968831E-006
                    80 -3.899516148942341E-004
                    81  0.000000000000000E+000
                    82  0.000000000000000E+000
                    83 -6.476812303418268E-004
                    84 -3.096833278620093E-004
                    85  0.000000000000000E+000
                    86  3.171278363142320E-005
                    87 -5.541554767644592E-005
                    88  0.000000000000000E+000
                    89  0.000000000000000E+000
                    90  5.355291620093054E-005
                    91  1.465849254899836E-004
                    92  7.849618813174924E-003
                    93 -2.108784267481028E-003
                    94 -2.969786941574599E-004
                    95  3.128828393276431E-003
                    96  1.720738857549984E-005
                    97  2.821358299954265E-005
                    98  0.000000000000000E+000
                    99 -8.018958890357347E-004
                   100  4.441074620401340E-005
                   101  0.000000000000000E+000
                   102  1.927401939463449E-003
                   103  6.895353095505208E-005
                   104  0.000000000000000E+000
                   105  2.656061143588658E-005
                   106  0.000000000000000E+000
                   107  0.000000000000000E+000
                   108 -2.066638764243894E-006
                   109  1.189213201231640E-006
                   110 -4.053238743573685E-004
                   111  0.000000000000000E+000
                   112  0.000000000000000E+000
                   113 -4.861336789835396E-004
                   114  3.216518252897554E-004
                   115  0.000000000000000E+000
                   116 -3.046347794330256E-005
                   117 -6.411382722857161E-005
                   118  0.000000000000000E+000
                   119  0.000000000000000E+000
                   120 -2.747714387414712E-005
                   121  1.364220822614872E-004
                   122 -2.401737249553524E-004
                   123 -7.374621487160658E-004
                   124  2.240970682709656E-004
                   125 -9.218117404867509E-005
                   126 -3.671113227721458E-006
                   127 -3.032512609321176E-004
                   128  0.000000000000000E+000
                   129 -5.449353104860983E-005
                   130  5.564787708417025E-004
                   131  0.000000000000000E+000
                   132  3.690031663262199E-004
                   133  8.620766655344236E-004
                   134  0.000000000000000E+000
                   135  1.738237549088015E-005
                   136  0.000000000000000E+000
                   137  0.000000000000000E+000
                   138  2.655645714815780E-006
                   139  4.753304432758883E-005
                   140  1.309642120766614E-004
                   141  0.000000000000000E+000
                   142  0.000000000000000E+000
                   143  2.539586433586474E-004
                   144 -1.570108765527775E-004
                   145  0.000000000000000E+000
                   146  8.051249517541978E-006
                   147 -3.369108640856615E-005
                   148  0.000000000000000E+000
                   149  0.000000000000000E+000
                   150 -4.493994281012524E-005
                   151  3.266934881571924E-005
                   152 -2.030835971761014E-004
                   153 -7.222144327942238E-004
                   154  2.309438361602990E-004
                   155 -6.361470591892025E-005
                   156 -1.039000944522640E-005
                   157 -3.088106316311984E-004
                   158  0.000000000000000E+000
                   159  8.503149561512260E-005
                   160  5.336199949309523E-004