[Molden Format]
[Atoms] AU
  N     1    7    -0.0577066600   -4.3198983100    0.0000000000        
  C     2    6     0.0292385900   -1.8134826500    0.0000000000        
  C     3    6    -2.3178975600   -0.4240350900    0.0000000000        
  C     4    6     2.3553009600   -0.3944216600    0.0000000000        
  C     5    6    -2.2903243200    2.1533015900    0.0000000000        
  C     6    6     2.2995835900    2.1822912800    0.0000000000        
  C     7    6    -0.0044270300    3.4871266800    0.0000000000        
  H     8    1    -2.2017518600   -5.5421083200    0.0000000000        
  H     9    1     1.6274351200   -5.3020584700    0.0000000000        
  H    10    1    -4.0433102600   -1.4726172400    0.0000000000        
  H    11    1     4.1094870500   -1.4029814100    0.0000000000        
  H    12    1    -4.0426873900    3.1742953100    0.0000000000        
  H    13    1     4.0372368000    3.2271404300    0.0000000000        
  H    14    1    -0.0154568000    5.5141749100    0.0000000000        
[5D]
[7F]
[GTO]
  1  0
   s    12 1.00
  0.114200D+05  0.172695D-04
  0.171200D+04  0.134411D-03
  0.389300D+03  0.694561D-03
  0.110000D+03  0.278531D-02
  0.355700D+02  0.863457D-02
  0.125400D+02  0.199805D-01
  0.464400D+01  0.262908D-01
  0.129300D+01 -0.243845D-01
  0.511800D+00 -0.924934D-01
  0.178700D+00 -0.339683D+00
  0.246240D-01  0.345111D+00
  0.112530D-01  0.752750D+00
   s    10 1.00
  0.114200D+05  0.523000D-03
  0.171200D+04  0.404500D-02
  0.389300D+03  0.207750D-01
  0.110000D+03  0.807269D-01
  0.355700D+02  0.233074D+00
  0.125400D+02  0.433501D+00
  0.464400D+01  0.347472D+00
  0.129300D+01  0.412620D-01
  0.511800D+00 -0.850799D-02
  0.178700D+00  0.238400D-02
   s    10 1.00
  0.114200D+05 -0.115000D-03
  0.171200D+04 -0.895000D-03
  0.389300D+03 -0.462400D-02
  0.110000D+03 -0.185280D-01
  0.355700D+02 -0.573390D-01
  0.125400D+02 -0.132076D+00
  0.464400D+01 -0.172510D+00
  0.129300D+01  0.151814D+00
  0.511800D+00  0.599944D+00
  0.178700D+00  0.387462D+00
   s     1 1.00
  0.129300D+01  0.100000D+01
   s     1 1.00
  0.178700D+00  0.100000D+01
   p     5 1.00
  0.266300D+02  0.146700D-01
  0.594800D+01  0.917640D-01
  0.174200D+01  0.298683D+00
  0.555000D+00  0.498487D+00
  0.172500D+00  0.337023D+00
   p     1 1.00
  0.174200D+01  0.100000D+01
   p     1 1.00
  0.555000D+00  0.100000D+01
   d     1 1.00
  0.165400D+01  0.100000D+01
   d     1 1.00
  0.469000D+00  0.100000D+01
   f     1 1.00
  0.109300D+01  0.100000D+01
  
  2  0
   s    10 1.00
  0.823600D+04  0.531000D-03
  0.123500D+04  0.410800D-02
  0.280800D+03  0.210870D-01
  0.792700D+02  0.818530D-01
  0.255900D+02  0.234817D+00
  0.899700D+01  0.434401D+00
  0.331900D+01  0.346129D+00
  0.905900D+00  0.393780D-01
  0.364300D+00 -0.898300D-02
  0.128500D+00  0.238500D-02
   s    10 1.00
  0.823600D+04 -0.113000D-03
  0.123500D+04 -0.878000D-03
  0.280800D+03 -0.454000D-02
  0.792700D+02 -0.181330D-01
  0.255900D+02 -0.557600D-01
  0.899700D+01 -0.126895D+00
  0.331900D+01 -0.170352D+00
  0.905900D+00  0.140382D+00
  0.364300D+00  0.598684D+00
  0.128500D+00  0.395389D+00
   s     1 1.00
  0.905900D+00  0.100000D+01
   s     1 1.00
  0.364300D+00  0.100000D+01
   p     5 1.00
  0.187100D+02  0.140310D-01
  0.413300D+01  0.868660D-01
  0.120000D+01  0.290216D+00
  0.382700D+00  0.501008D+00
  0.120900D+00  0.343406D+00
   p     1 1.00
  0.382700D+00  0.100000D+01
   p     1 1.00
  0.120900D+00  0.100000D+01
   d     1 1.00
  0.109700D+01  0.100000D+01
   d     1 1.00
  0.318000D+00  0.100000D+01
   f     1 1.00
  0.761000D+00  0.100000D+01
  
  3  0
   s    10 1.00
  0.823600D+04  0.531000D-03
  0.123500D+04  0.410800D-02
  0.280800D+03  0.210870D-01
  0.792700D+02  0.818530D-01
  0.255900D+02  0.234817D+00
  0.899700D+01  0.434401D+00
  0.331900D+01  0.346129D+00
  0.905900D+00  0.393780D-01
  0.364300D+00 -0.898300D-02
  0.128500D+00  0.238500D-02
   s    10 1.00
  0.823600D+04 -0.113000D-03
  0.123500D+04 -0.878000D-03
  0.280800D+03 -0.454000D-02
  0.792700D+02 -0.181330D-01
  0.255900D+02 -0.557600D-01
  0.899700D+01 -0.126895D+00
  0.331900D+01 -0.170352D+00
  0.905900D+00  0.140382D+00
  0.364300D+00  0.598684D+00
  0.128500D+00  0.395389D+00
   s     1 1.00
  0.905900D+00  0.100000D+01
   s     1 1.00
  0.364300D+00  0.100000D+01
   p     5 1.00
  0.187100D+02  0.140310D-01
  0.413300D+01  0.868660D-01
  0.120000D+01  0.290216D+00
  0.382700D+00  0.501008D+00
  0.120900D+00  0.343406D+00
   p     1 1.00
  0.382700D+00  0.100000D+01
   p     1 1.00
  0.120900D+00  0.100000D+01
   d     1 1.00
  0.109700D+01  0.100000D+01
   d     1 1.00
  0.318000D+00  0.100000D+01
   f     1 1.00
  0.761000D+00  0.100000D+01
  
  4  0
   s    10 1.00
  0.823600D+04  0.531000D-03
  0.123500D+04  0.410800D-02
  0.280800D+03  0.210870D-01
  0.792700D+02  0.818530D-01
  0.255900D+02  0.234817D+00
  0.899700D+01  0.434401D+00
  0.331900D+01  0.346129D+00
  0.905900D+00  0.393780D-01
  0.364300D+00 -0.898300D-02
  0.128500D+00  0.238500D-02
   s    10 1.00
  0.823600D+04 -0.113000D-03
  0.123500D+04 -0.878000D-03
  0.280800D+03 -0.454000D-02
  0.792700D+02 -0.181330D-01
  0.255900D+02 -0.557600D-01
  0.899700D+01 -0.126895D+00
  0.331900D+01 -0.170352D+00
  0.905900D+00  0.140382D+00
  0.364300D+00  0.598684D+00
  0.128500D+00  0.395389D+00
   s     1 1.00
  0.905900D+00  0.100000D+01
   s     1 1.00
  0.364300D+00  0.100000D+01
   p     5 1.00
  0.187100D+02  0.140310D-01
  0.413300D+01  0.868660D-01
  0.120000D+01  0.290216D+00
  0.382700D+00  0.501008D+00
  0.120900D+00  0.343406D+00
   p     1 1.00
  0.382700D+00  0.100000D+01
   p     1 1.00
  0.120900D+00  0.100000D+01
   d     1 1.00
  0.109700D+01  0.100000D+01
   d     1 1.00
  0.318000D+00  0.100000D+01
   f     1 1.00
  0.761000D+00  0.100000D+01
  
  5  0
   s    10 1.00
  0.823600D+04  0.531000D-03
  0.123500D+04  0.410800D-02
  0.280800D+03  0.210870D-01
  0.792700D+02  0.818530D-01
  0.255900D+02  0.234817D+00
  0.899700D+01  0.434401D+00
  0.331900D+01  0.346129D+00
  0.905900D+00  0.393780D-01
  0.364300D+00 -0.898300D-02
  0.128500D+00  0.238500D-02
   s    10 1.00
  0.823600D+04 -0.113000D-03
  0.123500D+04 -0.878000D-03
  0.280800D+03 -0.454000D-02
  0.792700D+02 -0.181330D-01
  0.255900D+02 -0.557600D-01
  0.899700D+01 -0.126895D+00
  0.331900D+01 -0.170352D+00
  0.905900D+00  0.140382D+00
  0.364300D+00  0.598684D+00
  0.128500D+00  0.395389D+00
   s     1 1.00
  0.905900D+00  0.100000D+01
   s     1 1.00
  0.364300D+00  0.100000D+01
   p     5 1.00
  0.187100D+02  0.140310D-01
  0.413300D+01  0.868660D-01
  0.120000D+01  0.290216D+00
  0.382700D+00  0.501008D+00
  0.120900D+00  0.343406D+00
   p     1 1.00
  0.382700D+00  0.100000D+01
   p     1 1.00
  0.120900D+00  0.100000D+01
   d     1 1.00
  0.109700D+01  0.100000D+01
   d     1 1.00
  0.318000D+00  0.100000D+01
   f     1 1.00
  0.761000D+00  0.100000D+01
  
  6  0
   s    10 1.00
  0.823600D+04  0.531000D-03
  0.123500D+04  0.410800D-02
  0.280800D+03  0.210870D-01
  0.792700D+02  0.818530D-01
  0.255900D+02  0.234817D+00
  0.899700D+01  0.434401D+00
  0.331900D+01  0.346129D+00
  0.905900D+00  0.393780D-01
  0.364300D+00 -0.898300D-02
  0.128500D+00  0.238500D-02
   s    10 1.00
  0.823600D+04 -0.113000D-03
  0.123500D+04 -0.878000D-03
  0.280800D+03 -0.454000D-02
  0.792700D+02 -0.181330D-01
  0.255900D+02 -0.557600D-01
  0.899700D+01 -0.126895D+00
  0.331900D+01 -0.170352D+00
  0.905900D+00  0.140382D+00
  0.364300D+00  0.598684D+00
  0.128500D+00  0.395389D+00
   s     1 1.00
  0.905900D+00  0.100000D+01
   s     1 1.00
  0.364300D+00  0.100000D+01
   p     5 1.00
  0.187100D+02  0.140310D-01
  0.413300D+01  0.868660D-01
  0.120000D+01  0.290216D+00
  0.382700D+00  0.501008D+00
  0.120900D+00  0.343406D+00
   p     1 1.00
  0.382700D+00  0.100000D+01
   p     1 1.00
  0.120900D+00  0.100000D+01
   d     1 1.00
  0.109700D+01  0.100000D+01
   d     1 1.00
  0.318000D+00  0.100000D+01
   f     1 1.00
  0.761000D+00  0.100000D+01
  
  7  0
   s    10 1.00
  0.823600D+04  0.531000D-03
  0.123500D+04  0.410800D-02
  0.280800D+03  0.210870D-01
  0.792700D+02  0.818530D-01
  0.255900D+02  0.234817D+00
  0.899700D+01  0.434401D+00
  0.331900D+01  0.346129D+00
  0.905900D+00  0.393780D-01
  0.364300D+00 -0.898300D-02
  0.128500D+00  0.238500D-02
   s    10 1.00
  0.823600D+04 -0.113000D-03
  0.123500D+04 -0.878000D-03
  0.280800D+03 -0.454000D-02
  0.792700D+02 -0.181330D-01
  0.255900D+02 -0.557600D-01
  0.899700D+01 -0.126895D+00
  0.331900D+01 -0.170352D+00
  0.905900D+00  0.140382D+00
  0.364300D+00  0.598684D+00
  0.128500D+00  0.395389D+00
   s     1 1.00
  0.905900D+00  0.100000D+01
   s     1 1.00
  0.364300D+00  0.100000D+01
   p     5 1.00
  0.187100D+02  0.140310D-01
  0.413300D+01  0.868660D-01
  0.120000D+01  0.290216D+00
  0.382700D+00  0.501008D+00
  0.120900D+00  0.343406D+00
   p     1 1.00
  0.382700D+00  0.100000D+01
   p     1 1.00
  0.120900D+00  0.100000D+01
   d     1 1.00
  0.109700D+01  0.100000D+01
   d     1 1.00
  0.318000D+00  0.100000D+01
   f     1 1.00
  0.761000D+00  0.100000D+01
  
  8  0
   s     4 1.00
  0.130100D+02  0.196850D-01
  0.196200D+01  0.137977D+00
  0.444600D+00  0.478148D+00
  0.122000D+00  0.501240D+00
   s     1 1.00
  0.122000D+00  0.100000D+01
   p     1 1.00
  0.727000D+00  0.100000D+01
  
  9  0
   s     4 1.00
  0.130100D+02  0.196850D-01
  0.196200D+01  0.137977D+00
  0.444600D+00  0.478148D+00
  0.122000D+00  0.501240D+00
   s     1 1.00
  0.122000D+00  0.100000D+01
   p     1 1.00
  0.727000D+00  0.100000D+01
  
 10  0
   s     4 1.00
  0.130100D+02  0.196850D-01
  0.196200D+01  0.137977D+00
  0.444600D+00  0.478148D+00
  0.122000D+00  0.501240D+00
   s     1 1.00
  0.122000D+00  0.100000D+01
   p     1 1.00
  0.727000D+00  0.100000D+01
  
 11  0
   s     4 1.00
  0.130100D+02  0.196850D-01
  0.196200D+01  0.137977D+00
  0.444600D+00  0.478148D+00
  0.122000D+00  0.501240D+00
   s     1 1.00
  0.122000D+00  0.100000D+01
   p     1 1.00
  0.727000D+00  0.100000D+01
  
 12  0
   s     4 1.00
  0.130100D+02  0.196850D-01
  0.196200D+01  0.137977D+00
  0.444600D+00  0.478148D+00
  0.122000D+00  0.501240D+00
   s     1 1.00
  0.122000D+00  0.100000D+01
   p     1 1.00
  0.727000D+00  0.100000D+01
  
 13  0
   s     4 1.00
  0.130100D+02  0.196850D-01
  0.196200D+01  0.137977D+00
  0.444600D+00  0.478148D+00
  0.122000D+00  0.501240D+00
   s     1 1.00
  0.122000D+00  0.100000D+01
   p     1 1.00
  0.727000D+00  0.100000D+01
  
 14  0
   s     4 1.00
  0.130100D+02  0.196850D-01
  0.196200D+01  0.137977D+00
  0.444600D+00  0.478148D+00
  0.122000D+00  0.501240D+00
   s     1 1.00
  0.122000D+00  0.100000D+01
   p     1 1.00
  0.727000D+00  0.100000D+01
  
[MO]
 Sym= __1_A'_
 Ene=   1.00000000000000     
 Spin= Alpha
 Occup=    1.00000000000000     
                     1  5.856156894075796E-006
                     2  0.998407461109092     
                     3  5.013781004496855E-003
                     4  1.743401335026574E-003
                     5  3.072911252141995E-003
                     6  1.700098058498554E-003
                     7  5.477682005108802E-003
                     8  0.000000000000000E+000
                     9 -1.087101209779655E-004
                    10 -2.833786848110286E-004
                    11  0.000000000000000E+000
                    12 -8.405886208245997E-004
                    13 -8.404448252281208E-004
                    14  0.000000000000000E+000
                    15 -1.523993134061428E-004
                    16  0.000000000000000E+000
                    17  0.000000000000000E+000
                    18 -1.998589105656794E-004
                    19 -5.754370012776167E-005
                    20  3.227271640861250E-004
                    21  0.000000000000000E+000
                    22  0.000000000000000E+000
                    23 -3.795924545968416E-004
                    24  1.903284784286020E-004
                    25  0.000000000000000E+000
                    26 -2.007737352641392E-005
                    27 -5.978912639764477E-005
                    28  0.000000000000000E+000
                    29  0.000000000000000E+000
                    30  1.797897875790482E-005
                    31 -1.377739523634912E-004
                    32 -3.380346223049291E-004
                    33  2.155541798413505E-003
                    34  2.043566683251173E-004
                    35 -3.180974417203405E-004
                    36 -1.880912825300509E-004
                    37 -5.818533077981553E-003
                    38  0.000000000000000E+000
                    39  1.074051975830467E-004
                    40  3.147704948707760E-004
                    41  0.000000000000000E+000
                    42 -7.133388812138258E-004
                    43  4.892452823781070E-003
                    44  0.000000000000000E+000
                    45 -3.552161709025798E-005
                    46  0.000000000000000E+000
                    47  0.000000000000000E+000
                    48 -2.923232088809874E-004
                    49 -1.257138435757298E-005
                    50 -3.450516548293900E-004
                    51  0.000000000000000E+000
                    52  0.000000000000000E+000
                    53  6.029135728164296E-005
                    54  2.292042308445425E-004
                    55  0.000000000000000E+000
                    56 -3.040271250083987E-006
                    57 -2.677009668900541E-005
                    58  0.000000000000000E+000
                    59  0.000000000000000E+000
                    60  4.012804434268888E-005
                    61 -1.215104508929720E-004
                    62 -2.886833753812239E-004
                    63 -1.634366225403157E-003
                    64 -4.898739306690245E-006
                    65  1.060432178055345E-003
                    66 -6.787716866009610E-004
                    67  6.264361443234746E-004
                    68  0.000000000000000E+000
                    69  9.473715913096643E-005
                    70  6.983910747110350E-004
                    71  0.000000000000000E+000
                    72 -1.238295277407802E-003
                    73  2.738308663353435E-004
                    74  0.000000000000000E+000
                    75 -2.298675156889989E-005
                    76  0.000000000000000E+000
                    77  0.000000000000000E+000
                    78 -7.442426469669764E-005
                    79 -1.083803247089209E-005
                    80 -5.095773133990557E-005
                    81  0.000000000000000E+000
                    82  0.000000000000000E+000
                    83 -2.558839978771512E-005
                    84  1.220860599123328E-004
                    85  0.000000000000000E+000
                    86  1.638532495933744E-005
                    87 -4.648207148343015E-005
                    88  0.000000000000000E+000
                    89  0.000000000000000E+000
                    90 -3.691499073628872E-005
                    91 -1.077624830334530E-004
                    92 -2.260597528994993E-004
                    93 -1.553130924854677E-003
                    94  1.120944997999306E-004
                    95  3.824544412045133E-004
                    96  7.282230871360661E-004
                    97  8.546401756546984E-004
                    98  0.000000000000000E+000
                    99  1.247764403736695E-004
                   100  4.451332952197756E-004
                   101  0.000000000000000E+000
                   102  5.601022320123369E-004
                   103 -7.521920012842723E-004
                   104  0.000000000000000E+000
                   105 -9.074299314831412E-006
                   106  0.000000000000000E+000
                   107  0.000000000000000E+000
                   108 -9.194089603956066E-005
                   109 -1.601368972936565E-006
                   110  2.252614791301683E-005
                   111  0.000000000000000E+000
                   112  0.000000000000000E+000
                   113 -2.106898534589644E-005
                   114 -9.375116686798879E-005
                   115  0.000000000000000E+000
                   116 -2.160423445815259E-005
                   117 -3.261345839501417E-005
                   118  0.000000000000000E+000
                   119  0.000000000000000E+000
                   120 -5.443728211536171E-006
                   121 -6.728795320418303E-005
                   122 -1.927485989774876E-004
                   123 -2.710328644045590E-004
                   124  1.333135533820812E-004
                   125  1.912798805441389E-004
                   126  1.038680022247485E-005
                   127 -6.043006587356765E-004
                   128  0.000000000000000E+000
                   129  1.146313751225211E-004
                   130  4.788807301163215E-004
                   131  0.000000000000000E+000
                   132  1.709655128370102E-004
                   133  1.225822622457524E-003
                   134  0.000000000000000E+000
                   135  1.240831795638000E-005
                   136  0.000000000000000E+000
                   137  0.000000000000000E+000
                   138  2.609471347485768E-005
                   139 -6.305071176408672E-007
                   140  1.278657458975058E-004
                   141  0.000000000000000E+000
                   142  0.000000000000000E+000
                   143  2.469384969206876E-004
                   144  1.723544524781894E-004
                   145  0.000000000000000E+000
                   146 -7.753662014946827E-006
                   147 -4.207173817535596E-005
                   148  0.000000000000000E+000
                   149  0.000000000000000E+000
                   150  2.884894697463125E-006
                   151 -3.050754407045309E-005
                   152 -1.702052002510559E-004
                   153 -1.593813369756904E-004
                   154  8.472767434387633E-005
                   155  2.684790337845149E-004
                   156 -2.792390539839580E-005
                   157 -6.246375420102423E-004
                   158  0.000000000000000E+000
                   159 -1.770617905529726E-005
                   160  1.981644164439600E-004
                   161  0.000000000000000E+000
                   162  4.640847591173533E-004
                   163  3.375857951107832E-004
                   164  0.000000000000000E+000
                   165  2.604257262673267E-006
                   166  0.000000000000000E+000
                   167  0.000000000000000E+000
                   168  7.659776732379960E-006
                   169 -9.044459925007448E-007
                   170  1.098303601437052E-004
                   171  0.000000000000000E+000
                   172  0.000000000000000E+000
                   173  9.415097070504643E-005
                   174 -1.074056128195210E-004
                   175  0.000000000000000E+000
                   176  2.150280643193054E-006
                   177 -2.319685365980213E-005
                   178  0.000000000000000E+000
                   179  0.000000000000000E+000
                   180 -1.081888711037376E-006
                   181 -2.399926941200661E-005
                   182 -1.418427800215865E-004
                   183 -3.959935128820671E-004
                   184  4.043194044636935E-005
                   185  1.874733795932525E-004
                   186 -2.013640129277259E-005
                   187 -4.457856984994373E-005
                   188  0.000000000000000E+000
                   189  1.093266046832711E-004
                   190  4.397396865699653E-005
                   191  0.000000000000000E+000
                   192  5.330748096037417E-004
                   193 -7.124769238031303E-005
                   194  0.000000000000000E+000
                   195 -8.398129743162778E-007
                   196  0.000000000000000E+000
                   197  0.000000000000000E+000
                   198 -1.603710169913535E-005
                   199 -1.064939718859109E-008
                   200  1.196761501235623E-005
                   201  0.000000000000000E+000
                   202  0.000000000000000E+000
                   203 -7.981040794157974E-005
                   204 -7.848979748617246E-005
                   205  0.000000000000000E+000
                   206 -4.554131770728132E-006
                   207 -5.301105898540075E-006
                   208  0.000000000000000E+000
                   209  0.000000000000000E+000
                   210 -9.745694872374184E-007
                   211 -7.008318727963024E-006
                   212  6.124447875423708E-004
                   213 -5.193821301646504E-004
                   214  2.944218275804673E-004
                   215  2.341485706610295E-004
                   216  0.000000000000000E+000
                   217  2.730624136985785E-003
                   218 -1.860357319954267E-003
                   219 -4.095161654490971E-004
                   220  3.126307999048681E-004
                   221  0.000000000000000E+000
                   222 -4.472849552376145E-004
                   223 -4.927623804223721E-004
                   224 -1.335991327852437E-005
                   225 -3.961396194556223E-005
                   226  0.000000000000000E+000
                   227 -4.593754829002175E-004
                   228 -2.851777834485060E-004
                   229 -8.406480166723775E-007
                   230 -4.106954828743898E-005
                   231  0.000000000000000E+000
                   232 -1.561986432787493E-004
                   233 -4.052548807123992E-004
                   234 -2.210284862852590E-006
                   235  4.446380104463374E-006
                   236  0.000000000000000E+000
                   237 -1.753342148305149E-004
                   238 -4.497082001744177E-004
                   239  2.704475945648066E-006
                   240 -1.405016943622465E-006
                   241  0.000000000000000E+000
                   242  3.484136799415524E-005
                   243 -6.984802629351043E-005
                   244  1.213185575447092E-006
                   245  1.854636001760592E-005
                   246  0.000000000000000E+000
 Sym= __2_A'_
 Ene=   2.00000000000000     
 Spin= Alpha
 Occup=    1.00000000000000     
                     1 -5.500383613451884E-005
                     2 -2.702134919833077E-004
                     3  2.643700682198359E-003
                     4  1.260359671112368E-004
                     5  1.318612168246404E-003
                     6 -1.629017261791187E-004
                     7  3.184863979669801E-003
                     8  0.000000000000000E+000
                     9 -4.464609529440841E-006
                    10 -8.094268065172694E-005
                    11  0.000000000000000E+000
                    12  1.076262005118976E-005
                    13 -4.954580032044021E-004
                    14  0.000000000000000E+000
                    15  3.706671138167262E-005
                    16  0.000000000000000E+000
                    17  0.000000000000000E+000
                    18 -6.522546589814762E-005
                    19  8.260655926969568E-006
                    20 -1.388856720136017E-004
                    21  0.000000000000000E+000
                    22  0.000000000000000E+000
                    23  2.766472518262090E-004
                    24 -8.956928028528640E-005
                    25  0.000000000000000E+000
                    26 -9.345906607381966E-006
                    27  1.053750035721175E-004
                    28  0.000000000000000E+000
                    29  0.000000000000000E+000
                    30 -4.466222028783646E-005
                    31  1.381953575658128E-004
                    32   1.00104133030110     
                    33  9.344844202233808E-003
                    34  2.629860519895916E-003
                    35 -7.815254688758785E-003
                    36 -1.746216077724328E-005
                    37 -4.060066522390488E-003
                    38  0.000000000000000E+000
                    39 -1.624103745279358E-004
                    40  7.345916260258802E-004
                    41  0.000000000000000E+000
                    42 -6.753112339804170E-005
                    43  4.419320556636274E-003
                    44  0.000000000000000E+000
                    45 -5.883068074619812E-004
                    46  0.000000000000000E+000
                    47  0.000000000000000E+000
                    48 -2.358015434372708E-004
                    49  3.652322697387969E-005
                    50  4.992348682641060E-004
                    51  0.000000000000000E+000
                    52  0.000000000000000E+000
                    53 -7.711134267810918E-004
                    54 -2.682267358888527E-004
                    55  0.000000000000000E+000
                    56  1.011535249321969E-005
                    57  8.915759322818095E-005
                    58  0.000000000000000E+000
                    59  0.000000000000000E+000
                    60 -2.815522018477797E-005
                    61  4.173778616582672E-004
                    62  7.234969899377272E-003
                    63 -2.057238102750998E-003
                    64 -2.359776898822752E-004
                    65  2.752647097781204E-003
                    66  4.999281600864017E-005
                    67  3.030556056144555E-005
                    68  0.000000000000000E+000
                    69  5.099024681519054E-004
                    70  1.169005502930407E-004
                    71  0.000000000000000E+000
                    72 -2.150792020350739E-003
                    73  2.268997453701022E-004
                    74  0.000000000000000E+000
                    75  3.524338834390110E-005
                    76  0.000000000000000E+000
                    77  0.000000000000000E+000
                    78 -5.229587503086424E-006
                    79  7.629290800621654E-006
                    80 -3.899516148809219E-004
                    81  0.000000000000000E+000
                    82  0.000000000000000E+000
                    83 -6.476812302608480E-004
                    84 -3.096833275495095E-004
                    85  0.000000000000000E+000
                    86  3.171278364312534E-005
                    87 -5.541554771345824E-005
                    88  0.000000000000000E+000
                    89  0.000000000000000E+000
                    90  5.355291619933574E-005
                    91  1.465849255082947E-004
                    92  7.849618978865429E-003
                    93 -2.108784266297733E-003
                    94 -2.969786936535463E-004
                    95  3.128828391832173E-003
                    96  1.720738773560623E-005
                    97  2.821358788539489E-005
                    98  0.000000000000000E+000
                    99 -8.018958887169740E-004
                   100  4.441074574012479E-005
                   101  0.000000000000000E+000
                   102  1.927401939019488E-003
                   103  6.895352990850854E-005
                   104  0.000000000000000E+000
                   105  2.656061136922135E-005
                   106  0.000000000000000E+000
                   107  0.000000000000000E+000
                   108 -2.066638943886110E-006
                   109  1.189213202096750E-006
                   110 -4.053238742896782E-004
                   111  0.000000000000000E+000
                   112  0.000000000000000E+000
                   113 -4.861336788850792E-004
                   114  3.216518249163036E-004
                   115  0.000000000000000E+000
                   116 -3.046347796378428E-005
                   117 -6.411382726341119E-005
                   118  0.000000000000000E+000
                   119  0.000000000000000E+000
                   120 -2.747714387241298E-005
                   121  1.364220822093466E-004
                   122 -2.401737278082260E-004
                   123 -7.374621471408756E-004
                   124  2.240970682046809E-004
                   125 -9.218117389431869E-005
                   126 -3.671112832629752E-006
                   127 -3.032512642851595E-004
                   128  0.000000000000000E+000
                   129 -5.449353119998185E-005
                   130  5.564787709574194E-004
                   131  0.000000000000000E+000
                   132  3.690031660409574E-004
                   133  8.620766657460208E-004
                   134  0.000000000000000E+000
                   135  1.738237545481569E-005
                   136  0.000000000000000E+000
                   137  0.000000000000000E+000
                   138  2.655645615481530E-006
                   139  4.753304433664549E-005
                   140  1.309642120238299E-004
                   141  0.000000000000000E+000
                   142  0.000000000000000E+000
                   143  2.539586431953768E-004
                   144 -1.570108765251090E-004
                   145  0.000000000000000E+000
                   146  8.051249517039657E-006
                   147 -3.369108638188852E-005
                   148  0.000000000000000E+000
                   149  0.000000000000000E+000
                   150 -4.493994281718173E-005
                   151  3.266934885934101E-005
                   152 -2.030835933547317E-004
                   153 -7.222144310618691E-004
                   154  2.309438360549733E-004
                   155 -6.361470548203292E-005
                   156 -1.039001017200460E-005
                   157 -3.088106356824580E-004
                   158  0.000000000000000E+000
                   159  8.503149570683615E-005
                   160  5.336199950839835E-004