[Molden Format]
[Atoms] AU
  N     1    7    -0.0034053200   -0.0024578800   -4.3489558100        
  C     2    6    -0.0023874100   -0.0036371600   -1.7448326000        
  C     3    6     0.0961824300   -2.3249885200   -0.4143637600        
  C     4    6    -0.0999162700    2.3165082000   -0.4121851900        
  C     5    6     0.1647195800   -2.2935804800    2.1761406600        
  C     6    6    -0.1664282500    2.2827539200    2.1783425000        
  C     7    6    -0.0003478600   -0.0060000600    3.4729811900        
  H     8    1    -1.3686943100   -0.9629193700   -5.3612638600        
  H     9    1     1.3610922200    0.9589205400   -5.3614605700        
  H    10    1     0.2000953300   -4.0515043600   -1.4573602500        
  H    11    1    -0.2046439000    4.0439679500   -1.4535359700        
  H    12    1     0.3293639000   -4.0282185200    3.2076688200        
  H    13    1    -0.3302654900    4.0164569400    3.2115697000        
  H    14    1     0.0004449700   -0.0069186300    5.5013520600        
[5D]
[7F]
[GTO]
  1  0
   s    12 1.00
  0.114200D+05  0.172695D-04
  0.171200D+04  0.134411D-03
  0.389300D+03  0.694561D-03
  0.110000D+03  0.278531D-02
  0.355700D+02  0.863457D-02
  0.125400D+02  0.199805D-01
  0.464400D+01  0.262908D-01
  0.129300D+01 -0.243845D-01
  0.511800D+00 -0.924934D-01
  0.178700D+00 -0.339683D+00
  0.246240D-01  0.345111D+00
  0.112530D-01  0.752750D+00
   s    10 1.00
  0.114200D+05  0.523000D-03
  0.171200D+04  0.404500D-02
  0.389300D+03  0.207750D-01
  0.110000D+03  0.807269D-01
  0.355700D+02  0.233074D+00
  0.125400D+02  0.433501D+00
  0.464400D+01  0.347472D+00
  0.129300D+01  0.412620D-01
  0.511800D+00 -0.850799D-02
  0.178700D+00  0.238400D-02
   s    10 1.00
  0.114200D+05 -0.115000D-03
  0.171200D+04 -0.895000D-03
  0.389300D+03 -0.462400D-02
  0.110000D+03 -0.185280D-01
  0.355700D+02 -0.573390D-01
  0.125400D+02 -0.132076D+00
  0.464400D+01 -0.172510D+00
  0.129300D+01  0.151814D+00
  0.511800D+00  0.599944D+00
  0.178700D+00  0.387462D+00
   s     1 1.00
  0.129300D+01  0.100000D+01
   s     1 1.00
  0.178700D+00  0.100000D+01
   p     5 1.00
  0.266300D+02  0.146700D-01
  0.594800D+01  0.917640D-01
  0.174200D+01  0.298683D+00
  0.555000D+00  0.498487D+00
  0.172500D+00  0.337023D+00
   p     1 1.00
  0.174200D+01  0.100000D+01
   p     1 1.00
  0.555000D+00  0.100000D+01
   d     1 1.00
  0.165400D+01  0.100000D+01
   d     1 1.00
  0.469000D+00  0.100000D+01
   f     1 1.00
  0.109300D+01  0.100000D+01
  
  2  0
   s    10 1.00
  0.823600D+04  0.531000D-03
  0.123500D+04  0.410800D-02
  0.280800D+03  0.210870D-01
  0.792700D+02  0.818530D-01
  0.255900D+02  0.234817D+00
  0.899700D+01  0.434401D+00
  0.331900D+01  0.346129D+00
  0.905900D+00  0.393780D-01
  0.364300D+00 -0.898300D-02
  0.128500D+00  0.238500D-02
   s    10 1.00
  0.823600D+04 -0.113000D-03
  0.123500D+04 -0.878000D-03
  0.280800D+03 -0.454000D-02
  0.792700D+02 -0.181330D-01
  0.255900D+02 -0.557600D-01
  0.899700D+01 -0.126895D+00
  0.331900D+01 -0.170352D+00
  0.905900D+00  0.140382D+00
  0.364300D+00  0.598684D+00
  0.128500D+00  0.395389D+00
   s     1 1.00
  0.905900D+00  0.100000D+01
   s     1 1.00
  0.364300D+00  0.100000D+01
   p     5 1.00
  0.187100D+02  0.140310D-01
  0.413300D+01  0.868660D-01
  0.120000D+01  0.290216D+00
  0.382700D+00  0.501008D+00
  0.120900D+00  0.343406D+00
   p     1 1.00
  0.382700D+00  0.100000D+01
   p     1 1.00
  0.120900D+00  0.100000D+01
   d     1 1.00
  0.109700D+01  0.100000D+01
   d     1 1.00
  0.318000D+00  0.100000D+01
   f     1 1.00
  0.761000D+00  0.100000D+01
  
  3  0
   s    10 1.00
  0.823600D+04  0.531000D-03
  0.123500D+04  0.410800D-02
  0.280800D+03  0.210870D-01
  0.792700D+02  0.818530D-01
  0.255900D+02  0.234817D+00
  0.899700D+01  0.434401D+00
  0.331900D+01  0.346129D+00
  0.905900D+00  0.393780D-01
  0.364300D+00 -0.898300D-02
  0.128500D+00  0.238500D-02
   s    10 1.00
  0.823600D+04 -0.113000D-03
  0.123500D+04 -0.878000D-03
  0.280800D+03 -0.454000D-02
  0.792700D+02 -0.181330D-01
  0.255900D+02 -0.557600D-01
  0.899700D+01 -0.126895D+00
  0.331900D+01 -0.170352D+00
  0.905900D+00  0.140382D+00
  0.364300D+00  0.598684D+00
  0.128500D+00  0.395389D+00
   s     1 1.00
  0.905900D+00  0.100000D+01
   s     1 1.00
  0.364300D+00  0.100000D+01
   p     5 1.00
  0.187100D+02  0.140310D-01
  0.413300D+01  0.868660D-01
  0.120000D+01  0.290216D+00
  0.382700D+00  0.501008D+00
  0.120900D+00  0.343406D+00
   p     1 1.00
  0.382700D+00  0.100000D+01
   p     1 1.00
  0.120900D+00  0.100000D+01
   d     1 1.00
  0.109700D+01  0.100000D+01
   d     1 1.00
  0.318000D+00  0.100000D+01
   f     1 1.00
  0.761000D+00  0.100000D+01
  
  4  0
   s    10 1.00
  0.823600D+04  0.531000D-03
  0.123500D+04  0.410800D-02
  0.280800D+03  0.210870D-01
  0.792700D+02  0.818530D-01
  0.255900D+02  0.234817D+00
  0.899700D+01  0.434401D+00
  0.331900D+01  0.346129D+00
  0.905900D+00  0.393780D-01
  0.364300D+00 -0.898300D-02
  0.128500D+00  0.238500D-02
   s    10 1.00
  0.823600D+04 -0.113000D-03
  0.123500D+04 -0.878000D-03
  0.280800D+03 -0.454000D-02
  0.792700D+02 -0.181330D-01
  0.255900D+02 -0.557600D-01
  0.899700D+01 -0.126895D+00
  0.331900D+01 -0.170352D+00
  0.905900D+00  0.140382D+00
  0.364300D+00  0.598684D+00
  0.128500D+00  0.395389D+00
   s     1 1.00
  0.905900D+00  0.100000D+01
   s     1 1.00
  0.364300D+00  0.100000D+01
   p     5 1.00
  0.187100D+02  0.140310D-01
  0.413300D+01  0.868660D-01
  0.120000D+01  0.290216D+00
  0.382700D+00  0.501008D+00
  0.120900D+00  0.343406D+00
   p     1 1.00
  0.382700D+00  0.100000D+01
   p     1 1.00
  0.120900D+00  0.100000D+01
   d     1 1.00
  0.109700D+01  0.100000D+01
   d     1 1.00
  0.318000D+00  0.100000D+01
   f     1 1.00
  0.761000D+00  0.100000D+01
  
  5  0
   s    10 1.00
  0.823600D+04  0.531000D-03
  0.123500D+04  0.410800D-02
  0.280800D+03  0.210870D-01
  0.792700D+02  0.818530D-01
  0.255900D+02  0.234817D+00
  0.899700D+01  0.434401D+00
  0.331900D+01  0.346129D+00
  0.905900D+00  0.393780D-01
  0.364300D+00 -0.898300D-02
  0.128500D+00  0.238500D-02
   s    10 1.00
  0.823600D+04 -0.113000D-03
  0.123500D+04 -0.878000D-03
  0.280800D+03 -0.454000D-02
  0.792700D+02 -0.181330D-01
  0.255900D+02 -0.557600D-01
  0.899700D+01 -0.126895D+00
  0.331900D+01 -0.170352D+00
  0.905900D+00  0.140382D+00
  0.364300D+00  0.598684D+00
  0.128500D+00  0.395389D+00
   s     1 1.00
  0.905900D+00  0.100000D+01
   s     1 1.00
  0.364300D+00  0.100000D+01
   p     5 1.00
  0.187100D+02  0.140310D-01
  0.413300D+01  0.868660D-01
  0.120000D+01  0.290216D+00
  0.382700D+00  0.501008D+00
  0.120900D+00  0.343406D+00
   p     1 1.00
  0.382700D+00  0.100000D+01
   p     1 1.00
  0.120900D+00  0.100000D+01
   d     1 1.00
  0.109700D+01  0.100000D+01
   d     1 1.00
  0.318000D+00  0.100000D+01
   f     1 1.00
  0.761000D+00  0.100000D+01
  
  6  0
   s    10 1.00
  0.823600D+04  0.531000D-03
  0.123500D+04  0.410800D-02
  0.280800D+03  0.210870D-01
  0.792700D+02  0.818530D-01
  0.255900D+02  0.234817D+00
  0.899700D+01  0.434401D+00
  0.331900D+01  0.346129D+00
  0.905900D+00  0.393780D-01
  0.364300D+00 -0.898300D-02
  0.128500D+00  0.238500D-02
   s    10 1.00
  0.823600D+04 -0.113000D-03
  0.123500D+04 -0.878000D-03
  0.280800D+03 -0.454000D-02
  0.792700D+02 -0.181330D-01
  0.255900D+02 -0.557600D-01
  0.899700D+01 -0.126895D+00
  0.331900D+01 -0.170352D+00
  0.905900D+00  0.140382D+00
  0.364300D+00  0.598684D+00
  0.128500D+00  0.395389D+00
   s     1 1.00
  0.905900D+00  0.100000D+01
   s     1 1.00
  0.364300D+00  0.100000D+01
   p     5 1.00
  0.187100D+02  0.140310D-01
  0.413300D+01  0.868660D-01
  0.120000D+01  0.290216D+00
  0.382700D+00  0.501008D+00
  0.120900D+00  0.343406D+00
   p     1 1.00
  0.382700D+00  0.100000D+01
   p     1 1.00
  0.120900D+00  0.100000D+01
   d     1 1.00
  0.109700D+01  0.100000D+01
   d     1 1.00
  0.318000D+00  0.100000D+01
   f     1 1.00
  0.761000D+00  0.100000D+01
  
  7  0
   s    10 1.00
  0.823600D+04  0.531000D-03
  0.123500D+04  0.410800D-02
  0.280800D+03  0.210870D-01
  0.792700D+02  0.818530D-01
  0.255900D+02  0.234817D+00
  0.899700D+01  0.434401D+00
  0.331900D+01  0.346129D+00
  0.905900D+00  0.393780D-01
  0.364300D+00 -0.898300D-02
  0.128500D+00  0.238500D-02
   s    10 1.00
  0.823600D+04 -0.113000D-03
  0.123500D+04 -0.878000D-03
  0.280800D+03 -0.454000D-02
  0.792700D+02 -0.181330D-01
  0.255900D+02 -0.557600D-01
  0.899700D+01 -0.126895D+00
  0.331900D+01 -0.170352D+00
  0.905900D+00  0.140382D+00
  0.364300D+00  0.598684D+00
  0.128500D+00  0.395389D+00
   s     1 1.00
  0.905900D+00  0.100000D+01
   s     1 1.00
  0.364300D+00  0.100000D+01
   p     5 1.00
  0.187100D+02  0.140310D-01
  0.413300D+01  0.868660D-01
  0.120000D+01  0.290216D+00
  0.382700D+00  0.501008D+00
  0.120900D+00  0.343406D+00
   p     1 1.00
  0.382700D+00  0.100000D+01
   p     1 1.00
  0.120900D+00  0.100000D+01
   d     1 1.00
  0.109700D+01  0.100000D+01
   d     1 1.00
  0.318000D+00  0.100000D+01
   f     1 1.00
  0.761000D+00  0.100000D+01
  
  8  0
   s     4 1.00
  0.130100D+02  0.196850D-01
  0.196200D+01  0.137977D+00
  0.444600D+00  0.478148D+00
  0.122000D+00  0.501240D+00
   s     1 1.00
  0.122000D+00  0.100000D+01
   p     1 1.00
  0.727000D+00  0.100000D+01
  
  9  0
   s     4 1.00
  0.130100D+02  0.196850D-01
  0.196200D+01  0.137977D+00
  0.444600D+00  0.478148D+00
  0.122000D+00  0.501240D+00
   s     1 1.00
  0.122000D+00  0.100000D+01
   p     1 1.00
  0.727000D+00  0.100000D+01
  
 10  0
   s     4 1.00
  0.130100D+02  0.196850D-01
  0.196200D+01  0.137977D+00
  0.444600D+00  0.478148D+00
  0.122000D+00  0.501240D+00
   s     1 1.00
  0.122000D+00  0.100000D+01
   p     1 1.00
  0.727000D+00  0.100000D+01
  
 11  0
   s     4 1.00
  0.130100D+02  0.196850D-01
  0.196200D+01  0.137977D+00
  0.444600D+00  0.478148D+00
  0.122000D+00  0.501240D+00
   s     1 1.00
  0.122000D+00  0.100000D+01
   p     1 1.00
  0.727000D+00  0.100000D+01
  
 12  0
   s     4 1.00
  0.130100D+02  0.196850D-01
  0.196200D+01  0.137977D+00
  0.444600D+00  0.478148D+00
  0.122000D+00  0.501240D+00
   s     1 1.00
  0.122000D+00  0.100000D+01
   p     1 1.00
  0.727000D+00  0.100000D+01
  
 13  0
   s     4 1.00
  0.130100D+02  0.196850D-01
  0.196200D+01  0.137977D+00
  0.444600D+00  0.478148D+00
  0.122000D+00  0.501240D+00
   s     1 1.00
  0.122000D+00  0.100000D+01
   p     1 1.00
  0.727000D+00  0.100000D+01
  
 14  0
   s     4 1.00
  0.130100D+02  0.196850D-01
  0.196200D+01  0.137977D+00
  0.444600D+00  0.478148D+00
  0.122000D+00  0.501240D+00
   s     1 1.00
  0.122000D+00  0.100000D+01
   p     1 1.00
  0.727000D+00  0.100000D+01
  
[MO]
 Sym= __1_A__
 Ene=  0.000000000000000E+000
 Spin= Alpha
 Occup=    2.00000000000000     
                     1  6.033290049367665E-005
                     2  0.997785730231677     
                     3  1.229530887747568E-002
                     4  2.152780195970211E-003
                     5  1.007381337660462E-003
                     6  1.386939281006787E-006
                     7 -1.610059488066443E-006
                     8  3.521987060085976E-003
                     9 -1.064618555199470E-007
                    10  1.282011930236377E-007
                    11 -2.589071474325837E-004
                    12 -1.841705088246158E-007
                    13  1.797807979434025E-007
                    14 -4.649563369014104E-004
                    15  1.790349057746539E-004
                    16  1.622169853366855E-007
                    17 -1.879818688855121E-007
                    18  1.689526811123357E-005
                    19  1.031217644549480E-004
                    20  8.371442552522133E-005
                    21 -1.121221224325988E-007
                    22  1.746943411138088E-007
                    23 -1.580995884438558E-004
                    24 -4.955317541403122E-004
                    25 -1.830224019487884E-004
                    26  1.222508059233354E-007
                    27 -1.623778969750235E-007
                    28  2.374624146692476E-006
                    29 -7.115702396700073E-005
                    30  3.878533104321626E-008
                    31 -3.575867777450564E-008
                    32 -2.317600513817067E-004
                    33  2.856543284781136E-003
                    34  1.091905077756665E-004
                    35 -5.319936859002659E-004
                    36 -2.692339834386946E-006
                    37  3.133206691301643E-006
                    38 -6.875358280278049E-003
                    39 -1.492519682065463E-008
                    40 -2.796322074785121E-008
                    41 -6.586026270772147E-005
                    42  1.514951284727002E-006
                    43 -1.716510676480935E-006
                    44  3.900147468919324E-003
                    45  3.808555378418894E-004
                    46  2.115474432968844E-007
                    47 -3.330915816969176E-007
                    48  1.075159751964762E-004
                    49 -1.039303932303039E-005
                    50  5.697149789736865E-004
                    51  4.432582964049485E-007
                    52 -6.347612818168317E-007
                    53 -1.641354290829904E-005
                    54  1.132296168581581E-004
                    55 -6.581974079885004E-005
                    56  1.763440697681698E-008
                    57 -9.768211077726265E-008
                    58  4.919626550898406E-005
                    59 -2.221321998521239E-005
                    60 -1.133960396843026E-008
                    61 -4.184244471235199E-008
                    62 -1.925131305392657E-004
                    63 -1.724302365776449E-003
                    64  6.853164269508013E-006
                    65  7.775258608171485E-004
                    66 -6.466704850987175E-006
                    67 -8.955007450549328E-004
                    68  1.206046569383163E-003
                    69  5.274974025785190E-005
                    70  8.412555895381704E-005
                    71  2.280635619152466E-004
                    72  4.551365516101023E-005
                    73 -6.032462529899403E-004
                    74 -2.796184679061646E-004
                    75  9.282844013215530E-005
                    76  2.626939094587154E-006
                    77 -1.256106501233735E-005
                    78  3.562953149658894E-005
                    79  6.810777157142548E-007
                    80  4.116084943767825E-005
                    81 -2.233648390703582E-005
                    82  3.163229589664315E-005
                    83  1.018634351078390E-005
                    84  3.273977588700296E-005
                    85 -7.780660306863635E-005
                    86  6.831040994937767E-006
                    87 -8.328753783657368E-006
                    88  2.120507263593968E-005
                    89 -5.726708716558814E-006
                    90  2.186078505850587E-006
                    91  2.216557449414633E-005
                    92 -1.924745309845091E-004
                    93 -1.724147956853441E-003
                    94  7.027126730232961E-006
                    95  7.769750038448958E-004
                    96  7.406724120522932E-006
                    97  8.944289099385072E-004
                    98  1.206967845887599E-003
                    99 -5.254937349891821E-005
                   100 -8.448456860701131E-005
                   101  2.273765238232934E-004
                   102 -4.569073358085901E-005
                   103  6.028903476024083E-004
                   104 -2.788544697116664E-004
                   105  9.281786162428069E-005
                   106 -2.527643794776864E-006
                   107  1.240067652574663E-005
                   108  3.564059455348998E-005
                   109  6.924989689317510E-007
                   110  4.061206607759592E-005
                   111  2.243397540502165E-005
                   112 -3.184784759061686E-005
                   113  1.008126637928449E-005
                   114  3.269076103962754E-005
                   115 -7.776522442109741E-005
                   116 -6.712975769754169E-006
                   117  8.135945504887421E-006
                   118  2.117697182520092E-005
                   119 -5.689202329316584E-006
                   120 -2.200531504059987E-006
                   121 -2.219343484389586E-005
                   122 -1.539772783596157E-004
                   123  3.033568124427360E-005
                   124  8.508908860198778E-005
                   125  2.293812840714719E-004
                   126 -7.149176211269401E-005
                   127  5.205812095299463E-005
                   128 -8.631172354980506E-004
                   129 -3.051760186183057E-006
                   130  1.891321869480381E-005
                   131  2.377447671649350E-004
                   132  1.684641821285608E-005
                   133 -5.038780113892351E-005
                   134  5.836804866726137E-004
                   135 -3.641605069653160E-006
                   136  2.084823557127488E-006
                   137  5.496008935480935E-006
                   138 -1.045711625245851E-006
                   139  1.724798693608020E-006
                   140 -1.399875922499379E-004
                   141 -1.417199194686346E-005
                   142  1.097847903547131E-004
                   143  3.105417480510138E-005
                   144 -6.915373598491838E-006
                   145 -2.696367939074001E-005
                   146 -5.713082548650481E-007
                   147 -4.776088075320475E-006
                   148 -8.209875389554575E-006
                   149 -1.529158514035747E-006
                   150 -9.590599697617668E-007
                   151 -2.502667992458116E-006
                   152 -1.544844982514663E-004
                   153  2.853641808056665E-005
                   154  8.456114576787372E-005
                   155  2.326557201204469E-004
                   156  7.080502218481217E-005
                   157 -5.121075620849045E-005
                   158 -8.631889766404694E-004
                   159  3.294203370884913E-006
                   160 -1.954874912492756E-005
                   161  2.373771086707372E-004
                   162 -1.644111367162718E-005
                   163  5.042650100555517E-005
                   164  5.839286752753533E-004
                   165 -3.590510313569357E-006
                   166 -2.090107977256477E-006
                   167 -5.500822882520105E-006
                   168 -1.109141180097643E-006
                   169  1.712759274278230E-006
                   170 -1.400502136439697E-004
                   171  1.395971172156680E-005
                   172 -1.098707313717233E-004
                   173  3.090587571759392E-005
                   174 -7.017314137291321E-006
                   175 -2.687856175471567E-005
                   176  6.354606769840096E-007
                   177  4.736241070776523E-006
                   178 -8.255709460187999E-006
                   179 -1.534411635132619E-006
                   180  9.699433851770589E-007
                   181  2.521547412498838E-006
                   182 -1.298982300479473E-004
                   183 -3.535377922158181E-004
                   184  2.492883064320139E-005
                   185  2.308823672299005E-004
                   186 -2.725929151703643E-008
                   187  1.170531687674562E-007
                   188 -4.345425307227601E-005
                   189  4.563313215521462E-008
                   190 -5.038707143946201E-007
                   191  1.049673567787329E-005
                   192 -3.681457701028533E-009
                   193 -3.998893976055336E-008
                   194 -2.645149634300927E-005
                   195  2.109515636831805E-005
                   196  9.781139406327958E-009
                   197  6.306099811920477E-009
                   198  7.867455918384528E-006
                   199  2.152333874837342E-006
                   200  3.461970847327895E-005
                   201 -3.001424755489886E-009
                   202  2.044376954113500E-007
                   203  2.472499419706706E-005
                   204 -1.507351334563150E-006
                   205 -1.141384767854411E-005
                   206  1.122035851284438E-008
                   207 -2.376800660328046E-008
                   208  3.014957173075354E-006
                   209  1.855451109338723E-006
                   210  3.996602054672986E-009
                   211  2.966594829816724E-008
                   212  5.661991670031700E-003
                   213 -3.143778233417910E-003
                   214  5.063349476975008E-004
                   215  3.403842847604901E-004
                   216  4.218329385460495E-004
                   217  5.661957759278208E-003
                   218 -3.143765152050426E-003
                   219 -5.060016457292531E-004
                   220 -3.407670470434139E-004
                   221  4.219184189628365E-004
                   222 -6.909331045689973E-004
                   223 -1.791659363516608E-004
                   224  4.358406372333241E-006
                   225 -3.691227730044927E-005
                   226 -4.439522367154737E-005
                   227 -6.910031395649815E-004
                   228 -1.787675628916354E-004
                   229 -4.392765886857182E-006
                   230  3.693281050418173E-005
                   231 -4.438667325130910E-005
                   232 -2.709576974181115E-004
                   233 -2.605385709848205E-004
                   234 -2.966358013343836E-006
                   235 -1.316497823067750E-005
                   236  4.663790188107680E-009
                   237 -2.710033615483196E-004
                   238 -2.607021714813507E-004
                   239  2.961425168566297E-006
                   240  1.321421583144008E-005
                   241  6.700992715686239E-008
                   242  1.031177138624071E-004
                   243 -4.477154164658195E-005
                   244  6.414534863087406E-009
                   245 -3.087375582159139E-008
                   246  1.423659053796470E-005
 Sym= __2_A__
 Ene=  0.000000000000000E+000
 Spin= Alpha
 Occup=    2.00000000000000     
                     1 -1.862070191210998E-005
                     2 -9.072083699248460E-005
                     3  1.975178948097815E-003
                     4  4.649078864791388E-005
                     5  1.161398708018513E-003
                     6  8.543656958268817E-007
                     7 -9.968692944869429E-007
                     8  2.206326753292539E-003
                     9 -3.564345462316472E-008
                    10  4.298818602248767E-008
                    11 -9.974166860317722E-005
                    12 -3.426920450640902E-008
                    13  4.845291202783976E-008
                    14 -9.702247112354451E-005
                    15  5.420024327403106E-005
                    16  1.772604457307264E-008
                    17 -4.071755339879708E-008
                    18  1.855651167328650E-005
                    19 -2.494571035994780E-005
                    20 -1.229393865929154E-004
                    21 -1.781092769340212E-009
                    22  8.598872797737878E-008
                    23 -7.180945689868160E-005
                    24  1.130518251452970E-004
                    25  1.949655775748869E-004
                    26 -1.770055818144255E-007
                    27  2.650084630659087E-007
                    28 -4.590846908328460E-005
                    29 -2.760716023222753E-005
                    30  3.727041494994681E-008
                    31  1.269318437463462E-008
                    32   1.00102321736636     
                    33  8.959671938216862E-003
                    34  2.625107658989041E-003
                    35 -7.943265270775306E-003
                    36 -1.287100856080770E-006
                    37  1.484299947573285E-006
                    38 -3.291467598165236E-003
                    39  4.960170153007295E-007
                    40 -5.704002597738684E-007
                    41  1.271802469337884E-003
                    42  1.476826504583723E-006
                    43 -1.772348324934348E-006
                    44  3.760255888837472E-003
                    45  3.065252116763559E-004
                    46  3.658207418414773E-007
                    47 -6.300531134134412E-008
                    48 -4.012470889000152E-004
                    49  3.378289464859734E-006
                    50  4.036764644655661E-004
                    51 -4.633331552503042E-008
                    52 -6.982566182367537E-007
                    53  8.536317707245852E-004
                    54  2.811152667879112E-005
                    55  3.082034320209097E-004
                    56 -1.793236529522841E-007
                    57  4.691793968228109E-007
                    58 -1.818171920815074E-004
                    59  5.589354345776112E-006
                    60  8.412663629537476E-008
                    61  1.053121456597197E-007
                    62  1.166943140276336E-002
                    63 -1.843343817307451E-003
                    64 -2.780419418076509E-004
                    65  2.954955152509860E-003
                    66 -4.083006592332447E-006
                    67  2.226452304076765E-004
                    68 -1.025439313444419E-004
                    69 -3.108094288648826E-005
                    70  5.045779870414461E-004
                    71  7.506270043164954E-005
                    72  1.059551439375675E-004
                    73 -1.880864924948768E-003
                    74  1.219015861254096E-004
                    75 -2.325210773978764E-005
                    76  1.975272242102838E-006
                    77  2.127291516008226E-005
                    78  2.576424195448126E-005
                    79  2.426946109619111E-006
                    80  7.964783272395869E-004
                    81  3.952310953263792E-005
                    82 -4.535981578498690E-004
                    83 -1.048559207807784E-005
                    84 -1.665845933006235E-005
                    85  5.305603620628386E-005
                    86 -6.367328802285392E-008
                    87  3.226076635740042E-005
                    88 -1.099264243700166E-004
                    89 -3.070923712090346E-006
                    90  6.226051767384963E-006
                    91  5.247220083071747E-005
                    92  1.166940211975789E-002
                    93 -1.843424587895105E-003
                    94 -2.780896784728735E-004
                    95  2.955159008128656E-003
                    96  4.003306637799455E-006
                    97 -2.225541610455113E-004
                    98 -1.027762108573622E-004
                    99  3.113511749449824E-005
                   100 -5.046368854612806E-004
                   101  7.473178403791837E-005
                   102 -1.058702699758181E-004
                   103  1.880901354107798E-003
                   104  1.235309784586337E-004
                   105 -2.326853376629505E-005
                   106 -2.025126194482516E-006
                   107 -2.126801015027856E-005
                   108  2.574199728284220E-005
                   109  2.412382536792849E-006
                   110  7.973237303924530E-004
                   111 -3.845605800707211E-005
                   112  4.524195153157841E-004
                   113 -1.008310184621525E-005
                   114 -1.626780123103366E-005
                   115  5.311114319323558E-005
                   116  9.258881418009402E-008
                   117 -3.198025268542254E-005
                   118 -1.100341097775180E-004
                   119 -3.067084646610885E-006
                   120 -6.116978976087175E-006
                   121 -5.235232254538048E-005
                   122 -1.557182012304284E-004
                   123 -7.505285333770447E-004
                   124  2.296754902943463E-004
                   125 -1.936764519987864E-004
                   126 -1.101019577796587E-005
                   127 -4.097371252659256E-005
                   128 -2.010198484131543E-004
                   129  2.368260080601629E-005
                   130  4.073750105702255E-005
                   131  5.654286431270239E-004
                   132 -1.388630955338979E-005
                   133  3.156240492451950E-004
                   134  6.483455998484143E-004
                   135 -2.248831411551037E-005
                   136 -4.219276671302996E-006
                   137  4.875839527139812E-005
                   138  1.573299814884112E-005
                   139  4.792611711217444E-006
                   140 -3.076082719967715E-004
                   141 -5.529734365026791E-006
                   142 -2.607194263050427E-004
                   143 -2.956618839023318E-005
                   144 -2.515304671157185E-005
                   145 -6.503315401354969E-006
                   146  6.033517730090639E-006
                   147 -2.592456852237179E-005
                   148 -2.887228254431910E-005
                   149 -5.040570639746115E-006
                   150  3.135449800186722E-007
                   151 -7.552936676872713E-006
                   152 -1.554254842969560E-004
                   153 -7.495587251213397E-004
                   154  2.297644318214392E-004
                   155 -1.947864876958589E-004
                   156  1.085496682811621E-005
                   157  4.114235218063814E-005
                   158 -2.009954845099483E-004
                   159 -2.325095480463323E-005
                   160 -4.117752074725809E-005