[Molden Format]
[Atoms] AU
  N     1    7     0.0000000000   -0.0053975900   -4.2772060800        
  C     2    6     0.0000000000    0.0000608900   -1.7763245500        
  C     3    6     0.0000000000   -2.3406677100   -0.4126727800        
  C     4    6     0.0000000000    2.3377307200   -0.4147901400        
  C     5    6     0.0000000000   -2.3005515700    2.1602294200        
  C     6    6     0.0000000000    2.3022033100    2.1586122400        
  C     7    6     0.0000000000    0.0011167700    3.4698427200        
  H     8    1     0.0000000000   -1.2786311500   -5.0922875600        
  H     9    1     0.0000000000    1.6705746500   -5.2415309900        
  H    10    1     0.0000000000   -4.0749863500   -1.4479523400        
  H    11    1     0.0000000000    4.0720127000   -1.4508672700        
  H    12    1     0.0000000000   -4.0402588300    3.1957184200        
  H    13    1     0.0000000000    4.0446993100    3.1900391000        
  H    14    1     0.0000000000    0.0015649100    5.4962996300        
[5D]
[7F]
[GTO]
  1  0
   s    12 1.00
  0.114200D+05  0.172695D-04
  0.171200D+04  0.134411D-03
  0.389300D+03  0.694561D-03
  0.110000D+03  0.278531D-02
  0.355700D+02  0.863457D-02
  0.125400D+02  0.199805D-01
  0.464400D+01  0.262908D-01
  0.129300D+01 -0.243845D-01
  0.511800D+00 -0.924934D-01
  0.178700D+00 -0.339683D+00
  0.246240D-01  0.345111D+00
  0.112530D-01  0.752750D+00
   s    10 1.00
  0.114200D+05  0.523000D-03
  0.171200D+04  0.404500D-02
  0.389300D+03  0.207750D-01
  0.110000D+03  0.807269D-01
  0.355700D+02  0.233074D+00
  0.125400D+02  0.433501D+00
  0.464400D+01  0.347472D+00
  0.129300D+01  0.412620D-01
  0.511800D+00 -0.850799D-02
  0.178700D+00  0.238400D-02
   s    10 1.00
  0.114200D+05 -0.115000D-03
  0.171200D+04 -0.895000D-03
  0.389300D+03 -0.462400D-02
  0.110000D+03 -0.185280D-01
  0.355700D+02 -0.573390D-01
  0.125400D+02 -0.132076D+00
  0.464400D+01 -0.172510D+00
  0.129300D+01  0.151814D+00
  0.511800D+00  0.599944D+00
  0.178700D+00  0.387462D+00
   s     1 1.00
  0.129300D+01  0.100000D+01
   s     1 1.00
  0.178700D+00  0.100000D+01
   p     5 1.00
  0.266300D+02  0.146700D-01
  0.594800D+01  0.917640D-01
  0.174200D+01  0.298683D+00
  0.555000D+00  0.498487D+00
  0.172500D+00  0.337023D+00
   p     1 1.00
  0.174200D+01  0.100000D+01
   p     1 1.00
  0.555000D+00  0.100000D+01
   d     1 1.00
  0.165400D+01  0.100000D+01
   d     1 1.00
  0.469000D+00  0.100000D+01
   f     1 1.00
  0.109300D+01  0.100000D+01
  
  2  0
   s    10 1.00
  0.823600D+04  0.531000D-03
  0.123500D+04  0.410800D-02
  0.280800D+03  0.210870D-01
  0.792700D+02  0.818530D-01
  0.255900D+02  0.234817D+00
  0.899700D+01  0.434401D+00
  0.331900D+01  0.346129D+00
  0.905900D+00  0.393780D-01
  0.364300D+00 -0.898300D-02
  0.128500D+00  0.238500D-02
   s    10 1.00
  0.823600D+04 -0.113000D-03
  0.123500D+04 -0.878000D-03
  0.280800D+03 -0.454000D-02
  0.792700D+02 -0.181330D-01
  0.255900D+02 -0.557600D-01
  0.899700D+01 -0.126895D+00
  0.331900D+01 -0.170352D+00
  0.905900D+00  0.140382D+00
  0.364300D+00  0.598684D+00
  0.128500D+00  0.395389D+00
   s     1 1.00
  0.905900D+00  0.100000D+01
   s     1 1.00
  0.364300D+00  0.100000D+01
   p     5 1.00
  0.187100D+02  0.140310D-01
  0.413300D+01  0.868660D-01
  0.120000D+01  0.290216D+00
  0.382700D+00  0.501008D+00
  0.120900D+00  0.343406D+00
   p     1 1.00
  0.382700D+00  0.100000D+01
   p     1 1.00
  0.120900D+00  0.100000D+01
   d     1 1.00
  0.109700D+01  0.100000D+01
   d     1 1.00
  0.318000D+00  0.100000D+01
   f     1 1.00
  0.761000D+00  0.100000D+01
  
  3  0
   s    10 1.00
  0.823600D+04  0.531000D-03
  0.123500D+04  0.410800D-02
  0.280800D+03  0.210870D-01
  0.792700D+02  0.818530D-01
  0.255900D+02  0.234817D+00
  0.899700D+01  0.434401D+00
  0.331900D+01  0.346129D+00
  0.905900D+00  0.393780D-01
  0.364300D+00 -0.898300D-02
  0.128500D+00  0.238500D-02
   s    10 1.00
  0.823600D+04 -0.113000D-03
  0.123500D+04 -0.878000D-03
  0.280800D+03 -0.454000D-02
  0.792700D+02 -0.181330D-01
  0.255900D+02 -0.557600D-01
  0.899700D+01 -0.126895D+00
  0.331900D+01 -0.170352D+00
  0.905900D+00  0.140382D+00
  0.364300D+00  0.598684D+00
  0.128500D+00  0.395389D+00
   s     1 1.00
  0.905900D+00  0.100000D+01
   s     1 1.00
  0.364300D+00  0.100000D+01
   p     5 1.00
  0.187100D+02  0.140310D-01
  0.413300D+01  0.868660D-01
  0.120000D+01  0.290216D+00
  0.382700D+00  0.501008D+00
  0.120900D+00  0.343406D+00
   p     1 1.00
  0.382700D+00  0.100000D+01
   p     1 1.00
  0.120900D+00  0.100000D+01
   d     1 1.00
  0.109700D+01  0.100000D+01
   d     1 1.00
  0.318000D+00  0.100000D+01
   f     1 1.00
  0.761000D+00  0.100000D+01
  
  4  0
   s    10 1.00
  0.823600D+04  0.531000D-03
  0.123500D+04  0.410800D-02
  0.280800D+03  0.210870D-01
  0.792700D+02  0.818530D-01
  0.255900D+02  0.234817D+00
  0.899700D+01  0.434401D+00
  0.331900D+01  0.346129D+00
  0.905900D+00  0.393780D-01
  0.364300D+00 -0.898300D-02
  0.128500D+00  0.238500D-02
   s    10 1.00
  0.823600D+04 -0.113000D-03
  0.123500D+04 -0.878000D-03
  0.280800D+03 -0.454000D-02
  0.792700D+02 -0.181330D-01
  0.255900D+02 -0.557600D-01
  0.899700D+01 -0.126895D+00
  0.331900D+01 -0.170352D+00
  0.905900D+00  0.140382D+00
  0.364300D+00  0.598684D+00
  0.128500D+00  0.395389D+00
   s     1 1.00
  0.905900D+00  0.100000D+01
   s     1 1.00
  0.364300D+00  0.100000D+01
   p     5 1.00
  0.187100D+02  0.140310D-01
  0.413300D+01  0.868660D-01
  0.120000D+01  0.290216D+00
  0.382700D+00  0.501008D+00
  0.120900D+00  0.343406D+00
   p     1 1.00
  0.382700D+00  0.100000D+01
   p     1 1.00
  0.120900D+00  0.100000D+01
   d     1 1.00
  0.109700D+01  0.100000D+01
   d     1 1.00
  0.318000D+00  0.100000D+01
   f     1 1.00
  0.761000D+00  0.100000D+01
  
  5  0
   s    10 1.00
  0.823600D+04  0.531000D-03
  0.123500D+04  0.410800D-02
  0.280800D+03  0.210870D-01
  0.792700D+02  0.818530D-01
  0.255900D+02  0.234817D+00
  0.899700D+01  0.434401D+00
  0.331900D+01  0.346129D+00
  0.905900D+00  0.393780D-01
  0.364300D+00 -0.898300D-02
  0.128500D+00  0.238500D-02
   s    10 1.00
  0.823600D+04 -0.113000D-03
  0.123500D+04 -0.878000D-03
  0.280800D+03 -0.454000D-02
  0.792700D+02 -0.181330D-01
  0.255900D+02 -0.557600D-01
  0.899700D+01 -0.126895D+00
  0.331900D+01 -0.170352D+00
  0.905900D+00  0.140382D+00
  0.364300D+00  0.598684D+00
  0.128500D+00  0.395389D+00
   s     1 1.00
  0.905900D+00  0.100000D+01
   s     1 1.00
  0.364300D+00  0.100000D+01
   p     5 1.00
  0.187100D+02  0.140310D-01
  0.413300D+01  0.868660D-01
  0.120000D+01  0.290216D+00
  0.382700D+00  0.501008D+00
  0.120900D+00  0.343406D+00
   p     1 1.00
  0.382700D+00  0.100000D+01
   p     1 1.00
  0.120900D+00  0.100000D+01
   d     1 1.00
  0.109700D+01  0.100000D+01
   d     1 1.00
  0.318000D+00  0.100000D+01
   f     1 1.00
  0.761000D+00  0.100000D+01
  
  6  0
   s    10 1.00
  0.823600D+04  0.531000D-03
  0.123500D+04  0.410800D-02
  0.280800D+03  0.210870D-01
  0.792700D+02  0.818530D-01
  0.255900D+02  0.234817D+00
  0.899700D+01  0.434401D+00
  0.331900D+01  0.346129D+00
  0.905900D+00  0.393780D-01
  0.364300D+00 -0.898300D-02
  0.128500D+00  0.238500D-02
   s    10 1.00
  0.823600D+04 -0.113000D-03
  0.123500D+04 -0.878000D-03
  0.280800D+03 -0.454000D-02
  0.792700D+02 -0.181330D-01
  0.255900D+02 -0.557600D-01
  0.899700D+01 -0.126895D+00
  0.331900D+01 -0.170352D+00
  0.905900D+00  0.140382D+00
  0.364300D+00  0.598684D+00
  0.128500D+00  0.395389D+00
   s     1 1.00
  0.905900D+00  0.100000D+01
   s     1 1.00
  0.364300D+00  0.100000D+01
   p     5 1.00
  0.187100D+02  0.140310D-01
  0.413300D+01  0.868660D-01
  0.120000D+01  0.290216D+00
  0.382700D+00  0.501008D+00
  0.120900D+00  0.343406D+00
   p     1 1.00
  0.382700D+00  0.100000D+01
   p     1 1.00
  0.120900D+00  0.100000D+01
   d     1 1.00
  0.109700D+01  0.100000D+01
   d     1 1.00
  0.318000D+00  0.100000D+01
   f     1 1.00
  0.761000D+00  0.100000D+01
  
  7  0
   s    10 1.00
  0.823600D+04  0.531000D-03
  0.123500D+04  0.410800D-02
  0.280800D+03  0.210870D-01
  0.792700D+02  0.818530D-01
  0.255900D+02  0.234817D+00
  0.899700D+01  0.434401D+00
  0.331900D+01  0.346129D+00
  0.905900D+00  0.393780D-01
  0.364300D+00 -0.898300D-02
  0.128500D+00  0.238500D-02
   s    10 1.00
  0.823600D+04 -0.113000D-03
  0.123500D+04 -0.878000D-03
  0.280800D+03 -0.454000D-02
  0.792700D+02 -0.181330D-01
  0.255900D+02 -0.557600D-01
  0.899700D+01 -0.126895D+00
  0.331900D+01 -0.170352D+00
  0.905900D+00  0.140382D+00
  0.364300D+00  0.598684D+00
  0.128500D+00  0.395389D+00
   s     1 1.00
  0.905900D+00  0.100000D+01
   s     1 1.00
  0.364300D+00  0.100000D+01
   p     5 1.00
  0.187100D+02  0.140310D-01
  0.413300D+01  0.868660D-01
  0.120000D+01  0.290216D+00
  0.382700D+00  0.501008D+00
  0.120900D+00  0.343406D+00
   p     1 1.00
  0.382700D+00  0.100000D+01
   p     1 1.00
  0.120900D+00  0.100000D+01
   d     1 1.00
  0.109700D+01  0.100000D+01
   d     1 1.00
  0.318000D+00  0.100000D+01
   f     1 1.00
  0.761000D+00  0.100000D+01
  
  8  0
   s     4 1.00
  0.130100D+02  0.196850D-01
  0.196200D+01  0.137977D+00
  0.444600D+00  0.478148D+00
  0.122000D+00  0.501240D+00
   s     1 1.00
  0.122000D+00  0.100000D+01
   p     1 1.00
  0.727000D+00  0.100000D+01
  
  9  0
   s     4 1.00
  0.130100D+02  0.196850D-01
  0.196200D+01  0.137977D+00
  0.444600D+00  0.478148D+00
  0.122000D+00  0.501240D+00
   s     1 1.00
  0.122000D+00  0.100000D+01
   p     1 1.00
  0.727000D+00  0.100000D+01
  
 10  0
   s     4 1.00
  0.130100D+02  0.196850D-01
  0.196200D+01  0.137977D+00
  0.444600D+00  0.478148D+00
  0.122000D+00  0.501240D+00
   s     1 1.00
  0.122000D+00  0.100000D+01
   p     1 1.00
  0.727000D+00  0.100000D+01
  
 11  0
   s     4 1.00
  0.130100D+02  0.196850D-01
  0.196200D+01  0.137977D+00
  0.444600D+00  0.478148D+00
  0.122000D+00  0.501240D+00
   s     1 1.00
  0.122000D+00  0.100000D+01
   p     1 1.00
  0.727000D+00  0.100000D+01
  
 12  0
   s     4 1.00
  0.130100D+02  0.196850D-01
  0.196200D+01  0.137977D+00
  0.444600D+00  0.478148D+00
  0.122000D+00  0.501240D+00
   s     1 1.00
  0.122000D+00  0.100000D+01
   p     1 1.00
  0.727000D+00  0.100000D+01
  
 13  0
   s     4 1.00
  0.130100D+02  0.196850D-01
  0.196200D+01  0.137977D+00
  0.444600D+00  0.478148D+00
  0.122000D+00  0.501240D+00
   s     1 1.00
  0.122000D+00  0.100000D+01
   p     1 1.00
  0.727000D+00  0.100000D+01
  
 14  0
   s     4 1.00
  0.130100D+02  0.196850D-01
  0.196200D+01  0.137977D+00
  0.444600D+00  0.478148D+00
  0.122000D+00  0.501240D+00
   s     1 1.00
  0.122000D+00  0.100000D+01
   p     1 1.00
  0.727000D+00  0.100000D+01
  
[MO]
 Sym= __1_A__
 Ene=   1.00000000000000     
 Spin= Alpha
 Occup=    1.00000000000000     
                     1  5.963067441029096E-005
                     2  0.997672791404660     
                     3  1.236702537354094E-002
                     4  2.492431806972467E-003
                     5  1.553085326290039E-004
                     6  8.237337528931462E-014
                     7 -4.945415607776944E-004
                     8  4.228261148437835E-003
                     9 -5.485086538310186E-012
                    10 -3.991123974426537E-004
                    11 -2.786292157759231E-004
                    12 -8.987693782611910E-012
                    13 -3.699953766369782E-004
                    14 -7.013930570987937E-005
                    15  2.606669420396762E-004
                    16  8.619021194502251E-013
                    17  3.638359669836372E-004
                    18 -4.231926351994058E-004
                    19 -3.984013337110651E-013
                    20  2.221040259097568E-004
                    21 -1.713963392508210E-012
                    22  6.409486215568974E-005
                    23  4.978579410149178E-004
                    24 -3.167738249562256E-014
                    25 -3.537396377805200E-004
                    26 -6.141926075477510E-013
                    27 -8.073849239647965E-005
                    28  3.301998467419458E-004
                    29 -2.341857147584826E-013
                    30 -1.659582198780436E-012
                    31  1.318419081994014E-004
                    32 -4.089416363284179E-004
                    33  3.024363760793247E-003
                    34  1.942963122162069E-004
                    35 -3.481194283099408E-004
                    36 -2.605077075296365E-012
                    37  1.950704485862878E-004
                    38 -7.910212188628701E-003
                    39 -2.368606614981022E-012
                    40 -2.829084771825535E-005
                    41  4.837790663535833E-004
                    42 -8.689028785083802E-012
                    43  2.426510960129136E-004
                    44  3.853672703579978E-003
                    45  3.603703823242376E-004
                    46  2.152060181638681E-012
                    47  2.610072311719680E-005
                    48  1.533752189537373E-004
                    49 -1.475135775002409E-012
                    50 -5.760394000952039E-005
                    51 -6.288838573232029E-012
                    52 -2.218075094695858E-004
                    53 -5.214041729279017E-004
                    54 -7.526819147341607E-012
                    55 -1.564420596489677E-004
                    56 -4.788664347665199E-013
                    57  2.116787968277951E-005
                    58  1.247209852114273E-004
                    59 -3.430073365253295E-012
                    60 -5.481697824422891E-012
                    61 -6.212203274236604E-006
                    62 -2.139005617108341E-004
                    63 -1.947866274655656E-003
                    64  6.476854514044663E-005
                    65  4.890066427251810E-004
                    66  5.125166947008341E-012
                    67 -1.019807206270712E-003
                    68  1.287797399940994E-003
                    69 -7.148104436477172E-012
                    70 -1.043163143106424E-004
                    71  6.587494584512987E-004
                    72 -4.110586116655721E-012
                    73 -2.064940722428175E-004
                    74 -2.593366122427728E-004
                    75  9.735159918791277E-005
                    76  7.204775241688203E-014
                    77 -9.480835979299942E-006
                    78  4.580287242367742E-005
                    79 -7.763244371244141E-014
                    80 -3.155019995451443E-006
                    81 -3.597230008598270E-013
                    82  2.566374339180718E-004
                    83 -3.450874858000828E-005
                    84  2.222454459169908E-012
                    85 -9.797680755024025E-005
                    86 -6.147124225837472E-013
                    87 -3.839532126214690E-005
                    88  2.509224383479446E-005
                    89 -4.994604051793224E-013
                    90 -3.077916179324976E-012
                    91  4.948879079592950E-006
                    92 -1.816594002531815E-004
                    93 -1.603859691144345E-003
                    94  4.945990257890718E-005
                    95  5.956774424380097E-004
                    96 -6.116850037810172E-012
                    97  8.222632217036384E-004
                    98  1.056408484433752E-003
                    99  7.502881236418112E-012
                   100 -6.184033843294950E-005
                   101  5.853086696348580E-004
                   102  1.049598952768057E-011
                   103  4.412605883077425E-004
                   104  3.346405490376758E-004
                   105  1.077854118224836E-004
                   106  2.897242621654649E-013
                   107  2.925830127068319E-005
                   108  3.752300275428966E-005
                   109 -2.066777991551371E-012
                   110 -1.848863935487330E-004
                   111 -3.182726608631650E-012
                   112 -3.036100807641282E-004
                   113 -9.508430035582294E-005
                   114 -4.722768050342748E-012
                   115 -1.089328125134079E-004
                   116 -1.098096847591733E-012
                   117  3.960828884263041E-005
                   118  2.521495942480772E-005
                   119  3.016338166304523E-012
                   120  1.394535853227871E-012
                   121 -1.408095741994753E-005
                   122 -1.429984079451885E-004
                   123  1.230190260320710E-004
                   124  1.280648916761086E-004
                   125  1.964902398507283E-005
                   126  4.653023130079750E-012
                   127  5.933741576695732E-005
                   128 -9.421587327573599E-004
                   129 -2.721265861488716E-012
                   130 -1.544964755805693E-005
                   131  3.798215137340669E-004
                   132  2.444196520287914E-012
                   133 -2.517799931684676E-004
                   134  3.519221501039714E-004
                   135 -1.946770964346636E-005
                   136 -1.784168280644408E-012
                   137  3.895048549300989E-006
                   138  3.708264313319054E-006
                   139 -4.436242249593155E-012
                   140 -1.640277080921514E-004
                   141 -8.191932176310907E-013
                   142  1.613630734309412E-004
                   143  1.758853209477615E-005
                   144  2.336264882286624E-012
                   145 -3.814410246692349E-005
                   146  3.263415274007029E-012
                   147  6.137005966341018E-006
                   148 -7.613766954734650E-006
                   149  3.450825064371392E-013
                   150  1.071751356979617E-012
                   151 -1.444655068610389E-006
                   152 -1.476524790934631E-004
                   153  3.842115373367043E-005
                   154  1.027063598144886E-004
                   155  2.040741954995385E-004
                   156 -2.237206728811143E-011
                   157 -4.594789448856596E-005
                   158 -8.513772497773971E-004
                   159  1.891505853507240E-011
                   160  2.141601252212869E-005
                   161  3.016411327381843E-004
                   162  2.912970695814129E-012
                   163  1.330105242247858E-005
                   164  8.900302836563923E-004
                   165 -1.749304359994895E-005
                   166  7.559208358168087E-013
                   167  1.115261161373184E-006
                   168  3.014136656115258E-006
                   169 -1.707145326254881E-012
                   170 -1.716045732346202E-004
                   171  2.263467884882089E-012
                   172 -2.161700333641208E-004
                   173  6.922768324170136E-006
                   174 -9.722717518760017E-013
                   175 -4.194367347553946E-005
                   176 -2.237399985165649E-012
                   177  1.994464306788630E-006
                   178 -9.949913059435595E-006
                   179 -3.619532949476826E-012
                   180  1.053045092770349E-012
                   181  4.412317612884133E-006
                   182 -1.224591285114484E-004
                   183 -3.242448736237108E-004
                   184  2.806618988863203E-005
                   185  1.518731930487826E-004
                   186  5.359347219349327E-012
                   187 -6.914877044921074E-006
                   188 -3.932869096640961E-005
                   189 -6.601064139508315E-012
                   190 -2.152034957680821E-005
                   191 -3.441106783437424E-006
                   192 -1.741234101393535E-012
                   193 -3.114720130333287E-004
                   194  1.497699571470622E-004
                   195  2.154409094526995E-005
                   196  7.439419738115592E-013
                   197  9.356039871717239E-007
                   198  1.013302640307074E-005
                   199 -1.398812278221938E-012
                   200  6.103664835077680E-005
                   201  2.725642140952110E-013
                   202  2.080381413170455E-005
                   203  4.171696376725914E-005
                   204 -1.344505171276616E-012
                   205 -1.487866211750908E-005
                   206 -1.682376669677367E-012
                   207 -3.577603303232298E-006
                   208  7.479449451278098E-006
                   209  4.239091019180740E-012
                   210 -1.796822591458588E-012
                   211 -1.267985543610330E-007
                   212  5.808830407100739E-003
                   213 -3.602825431651831E-003
                   214 -2.470031242268605E-012
                   215  1.939001440806023E-004
                   216  2.463332583763078E-004
                   217  4.356287757474177E-003
                   218 -2.483192458203737E-003
                   219  5.322750805449064E-013
                   220 -5.007814414516393E-004
                   221  3.860173198267168E-004
                   222 -7.901805542512584E-004
                   223  1.042751324894286E-004
                   224  2.569763436534296E-012
                   225 -3.241233076922094E-005
                   226 -4.000817822653435E-005
                   227 -8.080376956309381E-004
                   228  7.675747766637277E-005
                   229 -1.188769304941032E-012
                   230  1.658409882130654E-005
                   231 -7.421225523463796E-005
                   232 -2.951735467905612E-004
                   233 -3.337811998491989E-004
                   234 -1.926554095676579E-012
                   235 -7.336473052733619E-006
                   236  8.672453897361970E-006
                   237 -2.297303369847905E-004
                   238 -3.827357912471317E-004
                   239 -1.580446123036316E-013
                   240  7.328890537422030E-006
                   241  9.714481259784273E-006
                   242  7.964268913952860E-005
                   243 -1.663964313147773E-004
                   244 -1.060848474941016E-013
                   245  2.289410697408571E-006
                   246  1.233284807439038E-005
 Sym= __2_A__
 Ene=   2.00000000000000     
 Spin= Alpha
 Occup=    1.00000000000000     
                     1 -3.967721842837848E-005
                     2 -2.247408843356632E-004
                     3  1.907089859416845E-003
                     4  1.088293739196693E-004
                     5  1.465036252371128E-003
                     6  1.620083736931458E-012
                     7  1.164460338071848E-004
                     8  3.050891442444882E-003
                     9 -1.353310171946333E-012
                    10  1.334435031716746E-005
                    11 -4.866363901285108E-005
                    12  6.834273419717462E-014
                    13 -2.965307765601735E-005
                    14 -5.019692676250662E-004
                    15  3.086403857916095E-005
                    16  1.256809200332334E-012
                    17  1.434881940686775E-006
                    18  6.484161931825178E-005
                    19  2.478389655722209E-013
                    20 -3.705214710662984E-004
                    21  4.051287930603175E-012
                    22 -1.093028690782351E-004
                    23 -3.900242046998774E-004
                    24  8.559881062309074E-012
                    25  1.691245909395043E-004
                    26 -2.131191414084920E-012
                    27  2.836828459961796E-005
                    28 -6.009633001228238E-006
                    29 -4.081507842824194E-013
                    30 -3.346892688934372E-013
                    31  4.150602419146601E-006
                    32   1.00104406369271     
                    33  9.293533966801213E-003
                    34  2.689949985380954E-003
                    35 -7.785016479837439E-003
                    36 -2.164496419836474E-011
                    37  1.051879090437866E-005
                    38 -4.092001447821991E-003
                    39  2.698922941229641E-011
                    40 -1.106969578533231E-005
                    41  9.893115262850055E-004
                    42  1.500719698683193E-011
                    43 -1.011493131227933E-004
                    44  4.622606590951732E-003
                    45  4.838358590212089E-004
                    46 -4.213169313774033E-012
                    47  1.013808196603848E-005
                    48 -4.364002775592758E-004
                    49 -2.634263470686695E-012
                    50  6.009955705895741E-004
                    51  1.011380612461198E-011
                    52 -1.046136242776238E-004
                    53  9.685323422813354E-004
                    54 -2.821997194714074E-012
                    55  3.915649784194222E-004
                    56  2.916525847802451E-013
                    57 -2.591879630467622E-006
                    58 -2.136025407414914E-004
                    59  2.716188790761721E-012
                    60  4.492458933493063E-012
                    61 -6.311519302643858E-007
                    62  7.219108475457871E-003
                    63 -2.086058588585593E-003
                    64 -2.726207245933612E-004
                    65  3.047271508979162E-003
                    66  1.274407361453912E-011
                    67  1.137313292562497E-004
                    68 -2.982718927507924E-005
                    69 -2.200955223089514E-011
                    70  5.717944496842483E-004
                    71  1.125496380340915E-005
                    72  3.145506265072391E-012
                    73 -2.214362449794307E-003
                    74  1.351393614488123E-004
                    75 -1.631886916755895E-005
                    76  3.295454325583433E-013
                    77  1.527062239457042E-005
                    78  2.866669137875984E-005
                    79 -1.519545667350198E-012
                    80  7.966027752423683E-004
                    81  9.618891961604061E-012
                    82 -4.370638390379068E-004
                    83  5.010035931844134E-006
                    84 -1.128664602437634E-011
                    85  7.696324339991433E-005
                    86 -2.671223982185957E-012
                    87  5.360208852265762E-005
                    88 -1.273458448920923E-004
                    89 -1.563714472098531E-012
                    90 -3.157437831822997E-012
                    91  5.066103664922814E-005
                    92  7.295008785090862E-003
                    93 -2.073779375960568E-003
                    94 -2.882016918326059E-004
                    95  3.147817633794009E-003
                    96 -3.100691180055866E-012
                    97 -1.072854157409965E-004
                    98 -4.027221759752792E-005
                    99  7.186503565110537E-012
                   100 -6.532958434531564E-004
                   101  2.013894428993089E-005
                   102 -2.408619370008912E-011
                   103  2.128626906053456E-003
                   104 -6.291565892559021E-006
                   105 -1.475520645950289E-005
                   106  9.530847194550660E-013
                   107 -1.202209134008975E-005
                   108  2.716321721874228E-005
                   109 -1.366153167837095E-012
                   110  7.539376400496245E-004
                   111 -1.077109277799954E-011
                   112  4.311089561304728E-004
                   113 -1.990194161079731E-005
                   114  9.706683074487075E-012
                   115  7.184992652441261E-005
                   116  1.752021751879891E-012
                   117 -4.572308443069411E-005
                   118 -1.280382652577076E-004
                   119 -2.960998535261763E-012
                   120 -5.591917180133123E-013
                   121 -5.115454795290120E-005
                   122 -2.426217736722620E-004
                   123 -7.930325387161395E-004
                   124  2.218145313804978E-004
                   125 -8.574736365745654E-005
                   126  1.529808180900118E-011
                   127 -2.307857729185646E-005
                   128 -2.360932887799492E-004
                   129 -1.157457546861572E-011
                   130  6.189748209597850E-006
                   131  5.406563776144878E-004
                   132 -7.599954331083096E-012
                   133  3.613235302597352E-004
                   134  8.487856474711595E-004
                   135 -1.262928561780099E-005
                   136  3.124921035336026E-013
                   137  5.259570047487515E-005
                   138  1.341182364383398E-005
                   139  2.948540801570372E-012
                   140 -2.977360287302929E-004
                   141  4.188744703092051E-012
                   142 -2.209470863410668E-004
                   143 -1.619279588171620E-005
                   144  5.614918634817818E-012
                   145  2.461830083443220E-006
                   146 -3.703507222694746E-013
                   147 -4.299376371118552E-005
                   148 -4.007583559915918E-005
                   149  1.095895234990795E-012
                   150 -8.234935519609548E-015
                   151 -6.063606348252519E-006
                   152 -2.359471638168782E-004
                   153 -7.689891366651439E-004
                   154  2.277868253282913E-004
                   155 -1.116167079883019E-004
                   156  1.698229356943691E-011
                   157  1.741972028049635E-005
                   158 -2.404480418742127E-004
                   159 -1.804944032798465E-011
                   160  1.894914363774842E-005