[Molden Format]
[Atoms] AU
  N     1    7     0.0000000000   -0.0053975900   -4.2772060800        
  C     2    6     0.0000000000    0.0000608900   -1.7763245500        
  C     3    6     0.0000000000   -2.3406677100   -0.4126727800        
  C     4    6     0.0000000000    2.3377307200   -0.4147901400        
  C     5    6     0.0000000000   -2.3005515700    2.1602294200        
  C     6    6     0.0000000000    2.3022033100    2.1586122400        
  C     7    6     0.0000000000    0.0011167700    3.4698427200        
  H     8    1     0.0000000000   -1.2786311500   -5.0922875600        
  H     9    1     0.0000000000    1.6705746500   -5.2415309900        
  H    10    1     0.0000000000   -4.0749863500   -1.4479523400        
  H    11    1     0.0000000000    4.0720127000   -1.4508672700        
  H    12    1     0.0000000000   -4.0402588300    3.1957184200        
  H    13    1     0.0000000000    4.0446993100    3.1900391000        
  H    14    1     0.0000000000    0.0015649100    5.4962996300        
[5D]
[7F]
[GTO]
  1  0
   s    12 1.00
  0.114200D+05  0.172695D-04
  0.171200D+04  0.134411D-03
  0.389300D+03  0.694561D-03
  0.110000D+03  0.278531D-02
  0.355700D+02  0.863457D-02
  0.125400D+02  0.199805D-01
  0.464400D+01  0.262908D-01
  0.129300D+01 -0.243845D-01
  0.511800D+00 -0.924934D-01
  0.178700D+00 -0.339683D+00
  0.246240D-01  0.345111D+00
  0.112530D-01  0.752750D+00
   s    10 1.00
  0.114200D+05  0.523000D-03
  0.171200D+04  0.404500D-02
  0.389300D+03  0.207750D-01
  0.110000D+03  0.807269D-01
  0.355700D+02  0.233074D+00
  0.125400D+02  0.433501D+00
  0.464400D+01  0.347472D+00
  0.129300D+01  0.412620D-01
  0.511800D+00 -0.850799D-02
  0.178700D+00  0.238400D-02
   s    10 1.00
  0.114200D+05 -0.115000D-03
  0.171200D+04 -0.895000D-03
  0.389300D+03 -0.462400D-02
  0.110000D+03 -0.185280D-01
  0.355700D+02 -0.573390D-01
  0.125400D+02 -0.132076D+00
  0.464400D+01 -0.172510D+00
  0.129300D+01  0.151814D+00
  0.511800D+00  0.599944D+00
  0.178700D+00  0.387462D+00
   s     1 1.00
  0.129300D+01  0.100000D+01
   s     1 1.00
  0.178700D+00  0.100000D+01
   p     5 1.00
  0.266300D+02  0.146700D-01
  0.594800D+01  0.917640D-01
  0.174200D+01  0.298683D+00
  0.555000D+00  0.498487D+00
  0.172500D+00  0.337023D+00
   p     1 1.00
  0.174200D+01  0.100000D+01
   p     1 1.00
  0.555000D+00  0.100000D+01
   d     1 1.00
  0.165400D+01  0.100000D+01
   d     1 1.00
  0.469000D+00  0.100000D+01
   f     1 1.00
  0.109300D+01  0.100000D+01
  
  2  0
   s    10 1.00
  0.823600D+04  0.531000D-03
  0.123500D+04  0.410800D-02
  0.280800D+03  0.210870D-01
  0.792700D+02  0.818530D-01
  0.255900D+02  0.234817D+00
  0.899700D+01  0.434401D+00
  0.331900D+01  0.346129D+00
  0.905900D+00  0.393780D-01
  0.364300D+00 -0.898300D-02
  0.128500D+00  0.238500D-02
   s    10 1.00
  0.823600D+04 -0.113000D-03
  0.123500D+04 -0.878000D-03
  0.280800D+03 -0.454000D-02
  0.792700D+02 -0.181330D-01
  0.255900D+02 -0.557600D-01
  0.899700D+01 -0.126895D+00
  0.331900D+01 -0.170352D+00
  0.905900D+00  0.140382D+00
  0.364300D+00  0.598684D+00
  0.128500D+00  0.395389D+00
   s     1 1.00
  0.905900D+00  0.100000D+01
   s     1 1.00
  0.364300D+00  0.100000D+01
   p     5 1.00
  0.187100D+02  0.140310D-01
  0.413300D+01  0.868660D-01
  0.120000D+01  0.290216D+00
  0.382700D+00  0.501008D+00
  0.120900D+00  0.343406D+00
   p     1 1.00
  0.382700D+00  0.100000D+01
   p     1 1.00
  0.120900D+00  0.100000D+01
   d     1 1.00
  0.109700D+01  0.100000D+01
   d     1 1.00
  0.318000D+00  0.100000D+01
   f     1 1.00
  0.761000D+00  0.100000D+01
  
  3  0
   s    10 1.00
  0.823600D+04  0.531000D-03
  0.123500D+04  0.410800D-02
  0.280800D+03  0.210870D-01
  0.792700D+02  0.818530D-01
  0.255900D+02  0.234817D+00
  0.899700D+01  0.434401D+00
  0.331900D+01  0.346129D+00
  0.905900D+00  0.393780D-01
  0.364300D+00 -0.898300D-02
  0.128500D+00  0.238500D-02
   s    10 1.00
  0.823600D+04 -0.113000D-03
  0.123500D+04 -0.878000D-03
  0.280800D+03 -0.454000D-02
  0.792700D+02 -0.181330D-01
  0.255900D+02 -0.557600D-01
  0.899700D+01 -0.126895D+00
  0.331900D+01 -0.170352D+00
  0.905900D+00  0.140382D+00
  0.364300D+00  0.598684D+00
  0.128500D+00  0.395389D+00
   s     1 1.00
  0.905900D+00  0.100000D+01
   s     1 1.00
  0.364300D+00  0.100000D+01
   p     5 1.00
  0.187100D+02  0.140310D-01
  0.413300D+01  0.868660D-01
  0.120000D+01  0.290216D+00
  0.382700D+00  0.501008D+00
  0.120900D+00  0.343406D+00
   p     1 1.00
  0.382700D+00  0.100000D+01
   p     1 1.00
  0.120900D+00  0.100000D+01
   d     1 1.00
  0.109700D+01  0.100000D+01
   d     1 1.00
  0.318000D+00  0.100000D+01
   f     1 1.00
  0.761000D+00  0.100000D+01
  
  4  0
   s    10 1.00
  0.823600D+04  0.531000D-03
  0.123500D+04  0.410800D-02
  0.280800D+03  0.210870D-01
  0.792700D+02  0.818530D-01
  0.255900D+02  0.234817D+00
  0.899700D+01  0.434401D+00
  0.331900D+01  0.346129D+00
  0.905900D+00  0.393780D-01
  0.364300D+00 -0.898300D-02
  0.128500D+00  0.238500D-02
   s    10 1.00
  0.823600D+04 -0.113000D-03
  0.123500D+04 -0.878000D-03
  0.280800D+03 -0.454000D-02
  0.792700D+02 -0.181330D-01
  0.255900D+02 -0.557600D-01
  0.899700D+01 -0.126895D+00
  0.331900D+01 -0.170352D+00
  0.905900D+00  0.140382D+00
  0.364300D+00  0.598684D+00
  0.128500D+00  0.395389D+00
   s     1 1.00
  0.905900D+00  0.100000D+01
   s     1 1.00
  0.364300D+00  0.100000D+01
   p     5 1.00
  0.187100D+02  0.140310D-01
  0.413300D+01  0.868660D-01
  0.120000D+01  0.290216D+00
  0.382700D+00  0.501008D+00
  0.120900D+00  0.343406D+00
   p     1 1.00
  0.382700D+00  0.100000D+01
   p     1 1.00
  0.120900D+00  0.100000D+01
   d     1 1.00
  0.109700D+01  0.100000D+01
   d     1 1.00
  0.318000D+00  0.100000D+01
   f     1 1.00
  0.761000D+00  0.100000D+01
  
  5  0
   s    10 1.00
  0.823600D+04  0.531000D-03
  0.123500D+04  0.410800D-02
  0.280800D+03  0.210870D-01
  0.792700D+02  0.818530D-01
  0.255900D+02  0.234817D+00
  0.899700D+01  0.434401D+00
  0.331900D+01  0.346129D+00
  0.905900D+00  0.393780D-01
  0.364300D+00 -0.898300D-02
  0.128500D+00  0.238500D-02
   s    10 1.00
  0.823600D+04 -0.113000D-03
  0.123500D+04 -0.878000D-03
  0.280800D+03 -0.454000D-02
  0.792700D+02 -0.181330D-01
  0.255900D+02 -0.557600D-01
  0.899700D+01 -0.126895D+00
  0.331900D+01 -0.170352D+00
  0.905900D+00  0.140382D+00
  0.364300D+00  0.598684D+00
  0.128500D+00  0.395389D+00
   s     1 1.00
  0.905900D+00  0.100000D+01
   s     1 1.00
  0.364300D+00  0.100000D+01
   p     5 1.00
  0.187100D+02  0.140310D-01
  0.413300D+01  0.868660D-01
  0.120000D+01  0.290216D+00
  0.382700D+00  0.501008D+00
  0.120900D+00  0.343406D+00
   p     1 1.00
  0.382700D+00  0.100000D+01
   p     1 1.00
  0.120900D+00  0.100000D+01
   d     1 1.00
  0.109700D+01  0.100000D+01
   d     1 1.00
  0.318000D+00  0.100000D+01
   f     1 1.00
  0.761000D+00  0.100000D+01
  
  6  0
   s    10 1.00
  0.823600D+04  0.531000D-03
  0.123500D+04  0.410800D-02
  0.280800D+03  0.210870D-01
  0.792700D+02  0.818530D-01
  0.255900D+02  0.234817D+00
  0.899700D+01  0.434401D+00
  0.331900D+01  0.346129D+00
  0.905900D+00  0.393780D-01
  0.364300D+00 -0.898300D-02
  0.128500D+00  0.238500D-02
   s    10 1.00
  0.823600D+04 -0.113000D-03
  0.123500D+04 -0.878000D-03
  0.280800D+03 -0.454000D-02
  0.792700D+02 -0.181330D-01
  0.255900D+02 -0.557600D-01
  0.899700D+01 -0.126895D+00
  0.331900D+01 -0.170352D+00
  0.905900D+00  0.140382D+00
  0.364300D+00  0.598684D+00
  0.128500D+00  0.395389D+00
   s     1 1.00
  0.905900D+00  0.100000D+01
   s     1 1.00
  0.364300D+00  0.100000D+01
   p     5 1.00
  0.187100D+02  0.140310D-01
  0.413300D+01  0.868660D-01
  0.120000D+01  0.290216D+00
  0.382700D+00  0.501008D+00
  0.120900D+00  0.343406D+00
   p     1 1.00
  0.382700D+00  0.100000D+01
   p     1 1.00
  0.120900D+00  0.100000D+01
   d     1 1.00
  0.109700D+01  0.100000D+01
   d     1 1.00
  0.318000D+00  0.100000D+01
   f     1 1.00
  0.761000D+00  0.100000D+01
  
  7  0
   s    10 1.00
  0.823600D+04  0.531000D-03
  0.123500D+04  0.410800D-02
  0.280800D+03  0.210870D-01
  0.792700D+02  0.818530D-01
  0.255900D+02  0.234817D+00
  0.899700D+01  0.434401D+00
  0.331900D+01  0.346129D+00
  0.905900D+00  0.393780D-01
  0.364300D+00 -0.898300D-02
  0.128500D+00  0.238500D-02
   s    10 1.00
  0.823600D+04 -0.113000D-03
  0.123500D+04 -0.878000D-03
  0.280800D+03 -0.454000D-02
  0.792700D+02 -0.181330D-01
  0.255900D+02 -0.557600D-01
  0.899700D+01 -0.126895D+00
  0.331900D+01 -0.170352D+00
  0.905900D+00  0.140382D+00
  0.364300D+00  0.598684D+00
  0.128500D+00  0.395389D+00
   s     1 1.00
  0.905900D+00  0.100000D+01
   s     1 1.00
  0.364300D+00  0.100000D+01
   p     5 1.00
  0.187100D+02  0.140310D-01
  0.413300D+01  0.868660D-01
  0.120000D+01  0.290216D+00
  0.382700D+00  0.501008D+00
  0.120900D+00  0.343406D+00
   p     1 1.00
  0.382700D+00  0.100000D+01
   p     1 1.00
  0.120900D+00  0.100000D+01
   d     1 1.00
  0.109700D+01  0.100000D+01
   d     1 1.00
  0.318000D+00  0.100000D+01
   f     1 1.00
  0.761000D+00  0.100000D+01
  
  8  0
   s     4 1.00
  0.130100D+02  0.196850D-01
  0.196200D+01  0.137977D+00
  0.444600D+00  0.478148D+00
  0.122000D+00  0.501240D+00
   s     1 1.00
  0.122000D+00  0.100000D+01
   p     1 1.00
  0.727000D+00  0.100000D+01
  
  9  0
   s     4 1.00
  0.130100D+02  0.196850D-01
  0.196200D+01  0.137977D+00
  0.444600D+00  0.478148D+00
  0.122000D+00  0.501240D+00
   s     1 1.00
  0.122000D+00  0.100000D+01
   p     1 1.00
  0.727000D+00  0.100000D+01
  
 10  0
   s     4 1.00
  0.130100D+02  0.196850D-01
  0.196200D+01  0.137977D+00
  0.444600D+00  0.478148D+00
  0.122000D+00  0.501240D+00
   s     1 1.00
  0.122000D+00  0.100000D+01
   p     1 1.00
  0.727000D+00  0.100000D+01
  
 11  0
   s     4 1.00
  0.130100D+02  0.196850D-01
  0.196200D+01  0.137977D+00
  0.444600D+00  0.478148D+00
  0.122000D+00  0.501240D+00
   s     1 1.00
  0.122000D+00  0.100000D+01
   p     1 1.00
  0.727000D+00  0.100000D+01
  
 12  0
   s     4 1.00
  0.130100D+02  0.196850D-01
  0.196200D+01  0.137977D+00
  0.444600D+00  0.478148D+00
  0.122000D+00  0.501240D+00
   s     1 1.00
  0.122000D+00  0.100000D+01
   p     1 1.00
  0.727000D+00  0.100000D+01
  
 13  0
   s     4 1.00
  0.130100D+02  0.196850D-01
  0.196200D+01  0.137977D+00
  0.444600D+00  0.478148D+00
  0.122000D+00  0.501240D+00
   s     1 1.00
  0.122000D+00  0.100000D+01
   p     1 1.00
  0.727000D+00  0.100000D+01
  
 14  0
   s     4 1.00
  0.130100D+02  0.196850D-01
  0.196200D+01  0.137977D+00
  0.444600D+00  0.478148D+00
  0.122000D+00  0.501240D+00
   s     1 1.00
  0.122000D+00  0.100000D+01
   p     1 1.00
  0.727000D+00  0.100000D+01
  
[MO]
 Sym= __1_A__
 Ene=  0.000000000000000E+000
 Spin= Alpha
 Occup=    2.00000000000000     
                     1  5.963067438928631E-005
                     2  0.997672791404738     
                     3  1.236702537326054E-002
                     4  2.492431806994053E-003
                     5  1.553085331074139E-004
                     6  8.237337514066010E-014
                     7 -4.945415607867283E-004
                     8  4.228261148396344E-003
                     9 -5.485086538180772E-012
                    10 -3.991123974357549E-004
                    11 -2.786292157959872E-004
                    12 -8.987693782891799E-012
                    13 -3.699953766376327E-004
                    14 -7.013930568047373E-005
                    15  2.606669420277937E-004
                    16  8.619021196019786E-013
                    17  3.638359669750705E-004
                    18 -4.231926351901016E-004
                    19 -3.984013336794481E-013
                    20  2.221040258271022E-004
                    21 -1.713963393201958E-012
                    22  6.409486213320912E-005
                    23  4.978579410039622E-004
                    24 -3.167738276632667E-014
                    25 -3.537396377690297E-004
                    26 -6.141926075705725E-013
                    27 -8.073849239977545E-005
                    28  3.301998467504036E-004
                    29 -2.341857147777467E-013
                    30 -1.659582198820592E-012
                    31  1.318419081983118E-004
                    32 -4.089416396469758E-004
                    33  3.024363753819086E-003
                    34  1.942963122899937E-004
                    35 -3.481194279231338E-004
                    36 -2.605077076408487E-012
                    37  1.950704477673997E-004
                    38 -7.910212191050871E-003
                    39 -2.368606615132062E-012
                    40 -2.829084762547549E-005
                    41  4.837790663755592E-004
                    42 -8.689028787367741E-012
                    43  2.426510963356773E-004
                    44  3.853672703327130E-003
                    45  3.603703824166578E-004
                    46  2.152060181548155E-012
                    47  2.610072309537819E-005
                    48  1.533752191278648E-004
                    49 -1.475135775105385E-012
                    50 -5.760394004035516E-005
                    51 -6.288838573938054E-012
                    52 -2.218075095042595E-004
                    53 -5.214041726883246E-004
                    54 -7.526819146897151E-012
                    55 -1.564420597257396E-004
                    56 -4.788664345257272E-013
                    57  2.116787968253227E-005
                    58  1.247209852989504E-004
                    59 -3.430073365104567E-012
                    60 -5.481697824622077E-012
                    61 -6.212203266528045E-006
                    62 -2.139005613798526E-004
                    63 -1.947866274902893E-003
                    64  6.476854513855414E-005
                    65  4.890066426026221E-004
                    66  5.125166946470899E-012
                    67 -1.019807207752080E-003
                    68  1.287797404392627E-003
                    69 -7.148104436388488E-012
                    70 -1.043163142265344E-004
                    71  6.587494579442405E-004
                    72 -4.110586115129094E-012
                    73 -2.064940712455299E-004
                    74 -2.593366133988033E-004
                    75  9.735159932056367E-005
                    76  7.204775256489583E-014
                    77 -9.480835930725626E-006
                    78  4.580287251272084E-005
                    79 -7.763244376771776E-014
                    80 -3.155019981468589E-006
                    81 -3.597230014604994E-013
                    82  2.566374340507149E-004
                    83 -3.450874855323340E-005
                    84  2.222454459892564E-012
                    85 -9.797680756523169E-005
                    86 -6.147124225592959E-013
                    87 -3.839532126426838E-005
                    88  2.509224380635338E-005
                    89 -4.994604051400698E-013
                    90 -3.077916179319621E-012
                    91  4.948879093608014E-006
                    92 -1.816594001387109E-004
                    93 -1.603859693162372E-003
                    94  4.945990260589066E-005
                    95  5.956774424104823E-004
                    96 -6.116850036936410E-012
                    97  8.222632234206891E-004
                    98  1.056408489591505E-003
                    99  7.502881236516210E-012
                   100 -6.184033846340375E-005
                   101  5.853086690178293E-004
                   102  1.049598952881717E-011
                   103  4.412605872490107E-004
                   104  3.346405478274016E-004
                   105  1.077854119504246E-004
                   106  2.897242620927318E-013
                   107  2.925830121617103E-005
                   108  3.752300287474480E-005
                   109 -2.066777991614580E-012
                   110 -1.848863936011904E-004
                   111 -3.182726608209562E-012
                   112 -3.036100809992608E-004
                   113 -9.508430033131656E-005
                   114 -4.722768050321684E-012
                   115 -1.089328125096499E-004
                   116 -1.098096847527146E-012
                   117  3.960828885136190E-005
                   118  2.521495937704284E-005
                   119  3.016338166373210E-012
                   120  1.394535853192745E-012
                   121 -1.408095744150436E-005
                   122 -1.429984078817663E-004
                   123  1.230190280995871E-004
                   124  1.280648916143084E-004
                   125  1.964902385309154E-005
                   126  4.653023128049725E-012
                   127  5.933741586308626E-005
                   128 -9.421587361538158E-004
                   129 -2.721265861019010E-012
                   130 -1.544964761412865E-005
                   131  3.798215138885398E-004
                   132  2.444196519752957E-012
                   133 -2.517799931207266E-004
                   134  3.519221502568085E-004
                   135 -1.946770952851165E-005
                   136 -1.784168280811580E-012
                   137  3.895048584181915E-006
                   138  3.708264337611540E-006
                   139 -4.436242249546317E-012
                   140 -1.640277079226908E-004
                   141 -8.191932186437471E-013
                   142  1.613630734539795E-004
                   143  1.758853211071134E-005
                   144  2.336264881888758E-012
                   145 -3.814410241871522E-005
                   146  3.263415274080045E-012
                   147  6.137005954312500E-006
                   148 -7.613766954295480E-006
                   149  3.450825063479336E-013
                   150  1.071751356954702E-012
                   151 -1.444655071104480E-006
                   152 -1.476524790673451E-004
                   153  3.842115569021330E-005
                   154  1.027063597420041E-004
                   155  2.040741954536165E-004
                   156 -2.237206728701604E-011
                   157 -4.594789417111857E-005
                   158 -8.513772530590738E-004
                   159  1.891505853567984E-011
                   160  2.141601258421564E-005
                   161  3.016411328125241E-004
                   162  2.912970695111252E-012
                   163  1.330105238002075E-005
                   164  8.900302836979105E-004
                   165 -1.749304349053429E-005
                   166  7.559208357775618E-013
                   167  1.115261138626656E-006
                   168  3.014136678222962E-006
                   169 -1.707145326153738E-012
                   170 -1.716045730449866E-004
                   171  2.263467885468669E-012
                   172 -2.161700334194297E-004
                   173  6.922768358329184E-006
                   174 -9.722717528724003E-013
                   175 -4.194367342645147E-005
                   176 -2.237399985208864E-012
                   177  1.994464322557784E-006
                   178 -9.949913059925790E-006
                   179 -3.619532949638187E-012
                   180  1.053045092814868E-012
                   181  4.412317613776415E-006
                   182 -1.224591284790955E-004
                   183 -3.242448739655588E-004
                   184  2.806618989568314E-005
                   185  1.518731929670252E-004
                   186  5.359347220554469E-012
                   187 -6.914877234420147E-006
                   188 -3.932869024338673E-005
                   189 -6.601064140337560E-012
                   190 -2.152034956453236E-005
                   191 -3.441106898646452E-006
                   192 -1.741234100612242E-012
                   193 -3.114720129463429E-004
                   194  1.497699574533555E-004
                   195  2.154409101612298E-005
                   196  7.439419736817767E-013
                   197  9.356039951162682E-007
                   198  1.013302645025447E-005
                   199 -1.398812278071897E-012
                   200  6.103664835475393E-005
                   201  2.725642146250274E-013
                   202  2.080381412716082E-005
                   203  4.171696383380884E-005
                   204 -1.344505172335522E-012
                   205 -1.487866210330334E-005
                   206 -1.682376669711881E-012
                   207 -3.577603303751237E-006
                   208  7.479449435732680E-006
                   209  4.239091019345407E-012
                   210 -1.796822591520711E-012
                   211 -1.267985536432273E-007
                   212  5.808830406858406E-003
                   213 -3.602825431785688E-003
                   214 -2.470031242303939E-012
                   215  1.939001440778003E-004
                   216  2.463332583710285E-004
                   217  4.356287757301746E-003
                   218 -2.483192458294011E-003
                   219  5.322750802324241E-013
                   220 -5.007814414425800E-004
                   221  3.860173198144940E-004
                   222 -7.901805555376317E-004
                   223  1.042751331794336E-004
                   224  2.569763437090346E-012
                   225 -3.241233085894850E-005
                   226 -4.000817821340648E-005
                   227 -8.080376978599173E-004
                   228  7.675747881153721E-005
                   229 -1.188769304844430E-012
                   230  1.658409897860037E-005
                   231 -7.421225524802148E-005
                   232 -2.951735479479457E-004
                   233 -3.337811994755910E-004
                   234 -1.926554095501279E-012
                   235 -7.336473108476942E-006
                   236  8.672453882816876E-006
                   237 -2.297303377580148E-004
                   238 -3.827357910196058E-004
                   239 -1.580446121854382E-013
                   240  7.328890579451711E-006
                   241  9.714481233615444E-006
                   242  7.964269012641863E-005
                   243 -1.663964314600836E-004
                   244 -1.060848475740894E-013
                   245  2.289410695909634E-006
                   246  1.233284802615944E-005
 Sym= __2_A__
 Ene=  0.000000000000000E+000
 Spin= Alpha
 Occup=    2.00000000000000     
                     1 -3.967721844615052E-005
                     2 -2.247408808658632E-004
                     3  1.907089859514932E-003
                     4  1.088293739324581E-004
                     5  1.465036252281054E-003
                     6  1.620083738963185E-012
                     7  1.164460337791777E-004
                     8  3.050891442462234E-003
                     9 -1.353310171805381E-012
                    10  1.334435029105152E-005
                    11 -4.866363900255170E-005
                    12  6.834273390294253E-014
                    13 -2.965307757488888E-005
                    14 -5.019692676238644E-004
                    15  3.086403857950544E-005
                    16  1.256809200572717E-012
                    17  1.434881917617467E-006
                    18  6.484161931530637E-005
                    19  2.478389653546979E-013
                    20 -3.705214710596249E-004
                    21  4.051287931670011E-012
                    22 -1.093028690471180E-004
                    23 -3.900242046673876E-004
                    24  8.559881062987488E-012
                    25  1.691245909364104E-004
                    26 -2.131191413510607E-012
                    27  2.836828460296692E-005
                    28 -6.009632990739378E-006
                    29 -4.081507841557437E-013
                    30 -3.346892683359663E-013
                    31  4.150602423778105E-006
                    32   1.00104406369085     
                    33  9.293533966460966E-003
                    34  2.689949985278519E-003
                    35 -7.785016479146396E-003
                    36 -2.164496419562527E-011
                    37  1.051878861956562E-005
                    38 -4.092001447712176E-003
                    39  2.698922940926245E-011
                    40 -1.106969597732760E-005
                    41  9.893115263995670E-004
                    42  1.500719698201180E-011
                    43 -1.011493122832098E-004
                    44  4.622606590770245E-003
                    45  4.838358590344164E-004
                    46 -4.213169313506010E-012
                    47  1.013808188446199E-005
                    48 -4.364002775448550E-004
                    49 -2.634263470528056E-012
                    50  6.009955705279425E-004
                    51  1.011380612535374E-011
                    52 -1.046136242530200E-004
                    53  9.685323421145730E-004
                    54 -2.821997196499867E-012
                    55  3.915649783962499E-004
                    56  2.916525839018396E-013
                    57 -2.591879641313080E-006
                    58 -2.136025407179346E-004
                    59  2.716188790472432E-012
                    60  4.492458933382277E-012
                    61 -6.311519303136038E-007
                    62  7.219108745674471E-003
                    63 -2.086058585131664E-003
                    64 -2.726207237745811E-004
                    65  3.047271506632980E-003
                    66  1.274407361207860E-011
                    67  1.137313307722120E-004
                    68 -2.982718940746919E-005
                    69 -2.200955222991134E-011
                    70  5.717944492931517E-004
                    71  1.125496386571644E-005
                    72  3.145506268471053E-012
                    73 -2.214362449801565E-003
                    74  1.351393615851354E-004
                    75 -1.631886906255388E-005
                    76  3.295454334221926E-013
                    77  1.527062233945035E-005
                    78  2.866669128183982E-005
                    79 -1.519545668489343E-012
                    80  7.966027751129184E-004
                    81  9.618891961969026E-012
                    82 -4.370638388031689E-004
                    83  5.010035969056000E-006
                    84 -1.128664602305549E-011
                    85  7.696324332279407E-005
                    86 -2.671223982060789E-012
                    87  5.360208851480952E-005
                    88 -1.273458448292466E-004
                    89 -1.563714472306349E-012
                    90 -3.157437831294247E-012
                    91  5.066103666917222E-005
                    92  7.295008734075751E-003
                    93 -2.073779377163965E-003
                    94 -2.882016919239603E-004
                    95  3.147817634202410E-003
                    96 -3.100691174263201E-012
                    97 -1.072854149741323E-004
                    98 -4.027221586985777E-005
                    99  7.186503559881460E-012
                   100 -6.532958434266036E-004
                   101  2.013894420968880E-005
                   102 -2.408619370007629E-011
                   103  2.128626906082456E-003
                   104 -6.291566188912978E-006
                   105 -1.475520644236744E-005
                   106  9.530847197815691E-013
                   107 -1.202209137740564E-005
                   108  2.716321726875982E-005
                   109 -1.366153167391995E-012
                   110  7.539376400586129E-004
                   111 -1.077109278046860E-011
                   112  4.311089560690036E-004
                   113 -1.990194160758005E-005
                   114  9.706683071859682E-012
                   115  7.184992652050204E-005
                   116  1.752021752187204E-012
                   117 -4.572308442683261E-005
                   118 -1.280382652777450E-004
                   119 -2.960998534851558E-012
                   120 -5.591917174979014E-013
                   121 -5.115454795953799E-005
                   122 -2.426217678957231E-004
                   123 -7.930325388579674E-004
                   124  2.218145313073162E-004
                   125 -8.574736294266651E-005
                   126  1.529808181223899E-011
                   127 -2.307857735353095E-005
                   128 -2.360932893728275E-004
                   129 -1.157457547146792E-011
                   130  6.189748308250117E-006
                   131  5.406563775562389E-004
                   132 -7.599954333637394E-012
                   133  3.613235301054276E-004
                   134  8.487856479241831E-004
                   135 -1.262928561174827E-005
                   136  3.124921038304698E-013
                   137  5.259570044834153E-005
                   138  1.341182365404668E-005
                   139  2.948540801488871E-012
                   140 -2.977360286663381E-004
                   141  4.188744702071081E-012
                   142 -2.209470861840963E-004
                   143 -1.619279598429136E-005
                   144  5.614918635550754E-012
                   145  2.461830055287253E-006
                   146 -3.703507222906846E-013
                   147 -4.299376369382460E-005
                   148 -4.007583560292874E-005
                   149  1.095895235703084E-012
                   150 -8.234936009518208E-015
                   151 -6.063606357331018E-006
                   152 -2.359471658230876E-004
                   153 -7.689891362975537E-004
                   154  2.277868253302461E-004
                   155 -1.116167079113416E-004
                   156  1.698229357418137E-011
                   157  1.741972019884522E-005
                   158 -2.404480429491134E-004
                   159 -1.804944033242435E-011
                   160  1.894914367606812E-005