[Molden Format]
[Atoms] AU
  N     1    7    -0.0056078000   -4.2818552200    0.0000000100        
  C     2    6     0.1023880000   -1.7452831600    0.0000000000        
  C     3    6    -2.2360633200   -0.3803470300    0.0000000200        
  C     4    6     2.3914369100   -0.2937808000   -0.0000000300        
  C     5    6    -2.2500272700    2.2016241100   -0.0000000100        
  C     6    6     2.3278224000    2.2854989300    0.0000000000        
  C     7    6     0.0186025300    3.5636975500    0.0000000000        
  H     8    1    -3.9506348300   -7.2105341300    0.0000000200        
  H     9    1     1.8026092300   -5.0070519500    0.0000000000        
  H    10    1    -3.9595274700   -1.4427187200    0.0000000100        
  H    11    1     4.1659200800   -1.2794669300   -0.0000000300        
  H    12    1    -4.0138949200    3.2050827200   -0.0000000400        
  H    13    1     4.0574247600    3.3470683800    0.0000000300        
  H    14    1    -0.0176804700    5.5913906500    0.0000000100        
[5D]
[7F]
[GTO]
  1  0
   s    12 1.00
  0.114200D+05  0.172695D-04
  0.171200D+04  0.134411D-03
  0.389300D+03  0.694561D-03
  0.110000D+03  0.278531D-02
  0.355700D+02  0.863457D-02
  0.125400D+02  0.199805D-01
  0.464400D+01  0.262908D-01
  0.129300D+01 -0.243845D-01
  0.511800D+00 -0.924934D-01
  0.178700D+00 -0.339683D+00
  0.246240D-01  0.345111D+00
  0.112530D-01  0.752750D+00
   s    10 1.00
  0.114200D+05  0.523000D-03
  0.171200D+04  0.404500D-02
  0.389300D+03  0.207750D-01
  0.110000D+03  0.807269D-01
  0.355700D+02  0.233074D+00
  0.125400D+02  0.433501D+00
  0.464400D+01  0.347472D+00
  0.129300D+01  0.412620D-01
  0.511800D+00 -0.850799D-02
  0.178700D+00  0.238400D-02
   s    10 1.00
  0.114200D+05 -0.115000D-03
  0.171200D+04 -0.895000D-03
  0.389300D+03 -0.462400D-02
  0.110000D+03 -0.185280D-01
  0.355700D+02 -0.573390D-01
  0.125400D+02 -0.132076D+00
  0.464400D+01 -0.172510D+00
  0.129300D+01  0.151814D+00
  0.511800D+00  0.599944D+00
  0.178700D+00  0.387462D+00
   s     1 1.00
  0.129300D+01  0.100000D+01
   s     1 1.00
  0.178700D+00  0.100000D+01
   p     5 1.00
  0.266300D+02  0.146700D-01
  0.594800D+01  0.917640D-01
  0.174200D+01  0.298683D+00
  0.555000D+00  0.498487D+00
  0.172500D+00  0.337023D+00
   p     1 1.00
  0.174200D+01  0.100000D+01
   p     1 1.00
  0.555000D+00  0.100000D+01
   d     1 1.00
  0.165400D+01  0.100000D+01
   d     1 1.00
  0.469000D+00  0.100000D+01
   f     1 1.00
  0.109300D+01  0.100000D+01
  
  2  0
   s    10 1.00
  0.823600D+04  0.531000D-03
  0.123500D+04  0.410800D-02
  0.280800D+03  0.210870D-01
  0.792700D+02  0.818530D-01
  0.255900D+02  0.234817D+00
  0.899700D+01  0.434401D+00
  0.331900D+01  0.346129D+00
  0.905900D+00  0.393780D-01
  0.364300D+00 -0.898300D-02
  0.128500D+00  0.238500D-02
   s    10 1.00
  0.823600D+04 -0.113000D-03
  0.123500D+04 -0.878000D-03
  0.280800D+03 -0.454000D-02
  0.792700D+02 -0.181330D-01
  0.255900D+02 -0.557600D-01
  0.899700D+01 -0.126895D+00
  0.331900D+01 -0.170352D+00
  0.905900D+00  0.140382D+00
  0.364300D+00  0.598684D+00
  0.128500D+00  0.395389D+00
   s     1 1.00
  0.905900D+00  0.100000D+01
   s     1 1.00
  0.364300D+00  0.100000D+01
   p     5 1.00
  0.187100D+02  0.140310D-01
  0.413300D+01  0.868660D-01
  0.120000D+01  0.290216D+00
  0.382700D+00  0.501008D+00
  0.120900D+00  0.343406D+00
   p     1 1.00
  0.382700D+00  0.100000D+01
   p     1 1.00
  0.120900D+00  0.100000D+01
   d     1 1.00
  0.109700D+01  0.100000D+01
   d     1 1.00
  0.318000D+00  0.100000D+01
   f     1 1.00
  0.761000D+00  0.100000D+01
  
  3  0
   s    10 1.00
  0.823600D+04  0.531000D-03
  0.123500D+04  0.410800D-02
  0.280800D+03  0.210870D-01
  0.792700D+02  0.818530D-01
  0.255900D+02  0.234817D+00
  0.899700D+01  0.434401D+00
  0.331900D+01  0.346129D+00
  0.905900D+00  0.393780D-01
  0.364300D+00 -0.898300D-02
  0.128500D+00  0.238500D-02
   s    10 1.00
  0.823600D+04 -0.113000D-03
  0.123500D+04 -0.878000D-03
  0.280800D+03 -0.454000D-02
  0.792700D+02 -0.181330D-01
  0.255900D+02 -0.557600D-01
  0.899700D+01 -0.126895D+00
  0.331900D+01 -0.170352D+00
  0.905900D+00  0.140382D+00
  0.364300D+00  0.598684D+00
  0.128500D+00  0.395389D+00
   s     1 1.00
  0.905900D+00  0.100000D+01
   s     1 1.00
  0.364300D+00  0.100000D+01
   p     5 1.00
  0.187100D+02  0.140310D-01
  0.413300D+01  0.868660D-01
  0.120000D+01  0.290216D+00
  0.382700D+00  0.501008D+00
  0.120900D+00  0.343406D+00
   p     1 1.00
  0.382700D+00  0.100000D+01
   p     1 1.00
  0.120900D+00  0.100000D+01
   d     1 1.00
  0.109700D+01  0.100000D+01
   d     1 1.00
  0.318000D+00  0.100000D+01
   f     1 1.00
  0.761000D+00  0.100000D+01
  
  4  0
   s    10 1.00
  0.823600D+04  0.531000D-03
  0.123500D+04  0.410800D-02
  0.280800D+03  0.210870D-01
  0.792700D+02  0.818530D-01
  0.255900D+02  0.234817D+00
  0.899700D+01  0.434401D+00
  0.331900D+01  0.346129D+00
  0.905900D+00  0.393780D-01
  0.364300D+00 -0.898300D-02
  0.128500D+00  0.238500D-02
   s    10 1.00
  0.823600D+04 -0.113000D-03
  0.123500D+04 -0.878000D-03
  0.280800D+03 -0.454000D-02
  0.792700D+02 -0.181330D-01
  0.255900D+02 -0.557600D-01
  0.899700D+01 -0.126895D+00
  0.331900D+01 -0.170352D+00
  0.905900D+00  0.140382D+00
  0.364300D+00  0.598684D+00
  0.128500D+00  0.395389D+00
   s     1 1.00
  0.905900D+00  0.100000D+01
   s     1 1.00
  0.364300D+00  0.100000D+01
   p     5 1.00
  0.187100D+02  0.140310D-01
  0.413300D+01  0.868660D-01
  0.120000D+01  0.290216D+00
  0.382700D+00  0.501008D+00
  0.120900D+00  0.343406D+00
   p     1 1.00
  0.382700D+00  0.100000D+01
   p     1 1.00
  0.120900D+00  0.100000D+01
   d     1 1.00
  0.109700D+01  0.100000D+01
   d     1 1.00
  0.318000D+00  0.100000D+01
   f     1 1.00
  0.761000D+00  0.100000D+01
  
  5  0
   s    10 1.00
  0.823600D+04  0.531000D-03
  0.123500D+04  0.410800D-02
  0.280800D+03  0.210870D-01
  0.792700D+02  0.818530D-01
  0.255900D+02  0.234817D+00
  0.899700D+01  0.434401D+00
  0.331900D+01  0.346129D+00
  0.905900D+00  0.393780D-01
  0.364300D+00 -0.898300D-02
  0.128500D+00  0.238500D-02
   s    10 1.00
  0.823600D+04 -0.113000D-03
  0.123500D+04 -0.878000D-03
  0.280800D+03 -0.454000D-02
  0.792700D+02 -0.181330D-01
  0.255900D+02 -0.557600D-01
  0.899700D+01 -0.126895D+00
  0.331900D+01 -0.170352D+00
  0.905900D+00  0.140382D+00
  0.364300D+00  0.598684D+00
  0.128500D+00  0.395389D+00
   s     1 1.00
  0.905900D+00  0.100000D+01
   s     1 1.00
  0.364300D+00  0.100000D+01
   p     5 1.00
  0.187100D+02  0.140310D-01
  0.413300D+01  0.868660D-01
  0.120000D+01  0.290216D+00
  0.382700D+00  0.501008D+00
  0.120900D+00  0.343406D+00
   p     1 1.00
  0.382700D+00  0.100000D+01
   p     1 1.00
  0.120900D+00  0.100000D+01
   d     1 1.00
  0.109700D+01  0.100000D+01
   d     1 1.00
  0.318000D+00  0.100000D+01
   f     1 1.00
  0.761000D+00  0.100000D+01
  
  6  0
   s    10 1.00
  0.823600D+04  0.531000D-03
  0.123500D+04  0.410800D-02
  0.280800D+03  0.210870D-01
  0.792700D+02  0.818530D-01
  0.255900D+02  0.234817D+00
  0.899700D+01  0.434401D+00
  0.331900D+01  0.346129D+00
  0.905900D+00  0.393780D-01
  0.364300D+00 -0.898300D-02
  0.128500D+00  0.238500D-02
   s    10 1.00
  0.823600D+04 -0.113000D-03
  0.123500D+04 -0.878000D-03
  0.280800D+03 -0.454000D-02
  0.792700D+02 -0.181330D-01
  0.255900D+02 -0.557600D-01
  0.899700D+01 -0.126895D+00
  0.331900D+01 -0.170352D+00
  0.905900D+00  0.140382D+00
  0.364300D+00  0.598684D+00
  0.128500D+00  0.395389D+00
   s     1 1.00
  0.905900D+00  0.100000D+01
   s     1 1.00
  0.364300D+00  0.100000D+01
   p     5 1.00
  0.187100D+02  0.140310D-01
  0.413300D+01  0.868660D-01
  0.120000D+01  0.290216D+00
  0.382700D+00  0.501008D+00
  0.120900D+00  0.343406D+00
   p     1 1.00
  0.382700D+00  0.100000D+01
   p     1 1.00
  0.120900D+00  0.100000D+01
   d     1 1.00
  0.109700D+01  0.100000D+01
   d     1 1.00
  0.318000D+00  0.100000D+01
   f     1 1.00
  0.761000D+00  0.100000D+01
  
  7  0
   s    10 1.00
  0.823600D+04  0.531000D-03
  0.123500D+04  0.410800D-02
  0.280800D+03  0.210870D-01
  0.792700D+02  0.818530D-01
  0.255900D+02  0.234817D+00
  0.899700D+01  0.434401D+00
  0.331900D+01  0.346129D+00
  0.905900D+00  0.393780D-01
  0.364300D+00 -0.898300D-02
  0.128500D+00  0.238500D-02
   s    10 1.00
  0.823600D+04 -0.113000D-03
  0.123500D+04 -0.878000D-03
  0.280800D+03 -0.454000D-02
  0.792700D+02 -0.181330D-01
  0.255900D+02 -0.557600D-01
  0.899700D+01 -0.126895D+00
  0.331900D+01 -0.170352D+00
  0.905900D+00  0.140382D+00
  0.364300D+00  0.598684D+00
  0.128500D+00  0.395389D+00
   s     1 1.00
  0.905900D+00  0.100000D+01
   s     1 1.00
  0.364300D+00  0.100000D+01
   p     5 1.00
  0.187100D+02  0.140310D-01
  0.413300D+01  0.868660D-01
  0.120000D+01  0.290216D+00
  0.382700D+00  0.501008D+00
  0.120900D+00  0.343406D+00
   p     1 1.00
  0.382700D+00  0.100000D+01
   p     1 1.00
  0.120900D+00  0.100000D+01
   d     1 1.00
  0.109700D+01  0.100000D+01
   d     1 1.00
  0.318000D+00  0.100000D+01
   f     1 1.00
  0.761000D+00  0.100000D+01
  
  8  0
   s     4 1.00
  0.130100D+02  0.196850D-01
  0.196200D+01  0.137977D+00
  0.444600D+00  0.478148D+00
  0.122000D+00  0.501240D+00
   s     1 1.00
  0.122000D+00  0.100000D+01
   p     1 1.00
  0.727000D+00  0.100000D+01
  
  9  0
   s     4 1.00
  0.130100D+02  0.196850D-01
  0.196200D+01  0.137977D+00
  0.444600D+00  0.478148D+00
  0.122000D+00  0.501240D+00
   s     1 1.00
  0.122000D+00  0.100000D+01
   p     1 1.00
  0.727000D+00  0.100000D+01
  
 10  0
   s     4 1.00
  0.130100D+02  0.196850D-01
  0.196200D+01  0.137977D+00
  0.444600D+00  0.478148D+00
  0.122000D+00  0.501240D+00
   s     1 1.00
  0.122000D+00  0.100000D+01
   p     1 1.00
  0.727000D+00  0.100000D+01
  
 11  0
   s     4 1.00
  0.130100D+02  0.196850D-01
  0.196200D+01  0.137977D+00
  0.444600D+00  0.478148D+00
  0.122000D+00  0.501240D+00
   s     1 1.00
  0.122000D+00  0.100000D+01
   p     1 1.00
  0.727000D+00  0.100000D+01
  
 12  0
   s     4 1.00
  0.130100D+02  0.196850D-01
  0.196200D+01  0.137977D+00
  0.444600D+00  0.478148D+00
  0.122000D+00  0.501240D+00
   s     1 1.00
  0.122000D+00  0.100000D+01
   p     1 1.00
  0.727000D+00  0.100000D+01
  
 13  0
   s     4 1.00
  0.130100D+02  0.196850D-01
  0.196200D+01  0.137977D+00
  0.444600D+00  0.478148D+00
  0.122000D+00  0.501240D+00
   s     1 1.00
  0.122000D+00  0.100000D+01
   p     1 1.00
  0.727000D+00  0.100000D+01
  
 14  0
   s     4 1.00
  0.130100D+02  0.196850D-01
  0.196200D+01  0.137977D+00
  0.444600D+00  0.478148D+00
  0.122000D+00  0.501240D+00
   s     1 1.00
  0.122000D+00  0.100000D+01
   p     1 1.00
  0.727000D+00  0.100000D+01
  
[MO]
 Sym= __1_A'_
 Ene=   1.00000000000000     
 Spin= Alpha
 Occup=    1.00000000000000     
                     1  9.618742541623262E-005
                     2  0.998372849057246     
                     3 -3.760432264215317E-003
                     4  1.845274407108011E-003
                     5  6.542262102554115E-003
                     6  2.748472539334533E-003
                     7  5.643828446875677E-003
                     8  0.000000000000000E+000
                     9 -7.180681608070769E-004
                    10 -7.343502039099477E-004
                    11  0.000000000000000E+000
                    12 -2.458055439960776E-003
                    13 -1.970699028711811E-003
                    14  0.000000000000000E+000
                    15 -2.608979481535100E-005
                    16  0.000000000000000E+000
                    17  0.000000000000000E+000
                    18 -1.480681893763807E-004
                    19 -6.218374437455814E-005
                    20  1.037139977065740E-004
                    21  0.000000000000000E+000
                    22  0.000000000000000E+000
                    23 -1.827564494913968E-004
                    24  4.820295761086720E-004
                    25  0.000000000000000E+000
                    26 -3.534031701589208E-006
                    27 -4.409628266407319E-005
                    28  0.000000000000000E+000
                    29  0.000000000000000E+000
                    30  3.338001133197072E-005
                    31 -1.017586396379437E-004
                    32 -3.107087741810245E-004
                    33  3.649025098354463E-005
                    34  3.162277691414702E-004
                    35 -9.736410839406221E-005
                    36 -5.383335626843262E-005
                    37 -2.025545747061070E-003
                    38  0.000000000000000E+000
                    39  3.529413620086640E-004
                    40  1.200665162066925E-004
                    41  0.000000000000000E+000
                    42 -2.068385282490290E-003
                    43  4.825684014793966E-003
                    44  0.000000000000000E+000
                    45  1.173858898678119E-005
                    46  0.000000000000000E+000
                    47  0.000000000000000E+000
                    48 -1.032195387335392E-004
                    49  1.239353101861942E-005
                    50 -1.894282745343794E-004
                    51  0.000000000000000E+000
                    52  0.000000000000000E+000
                    53  5.197078867333170E-006
                    54  7.604571742349700E-004
                    55  0.000000000000000E+000
                    56 -3.560162000847731E-006
                    57 -7.896020165944616E-005
                    58  0.000000000000000E+000
                    59  0.000000000000000E+000
                    60  1.794156372856043E-005
                    61 -1.324635810510848E-004
                    62 -5.378228259562719E-004
                    63 -2.027530145844234E-003
                    64 -9.430788641601285E-005
                    65  2.215181101152000E-003
                    66 -3.511666979115326E-004
                    67 -4.221398541651858E-006
                    68  0.000000000000000E+000
                    69  3.726811806686769E-004
                    70  8.822576572776224E-004
                    71  0.000000000000000E+000
                    72 -1.785106185735452E-003
                    73  6.489410097403905E-004
                    74  0.000000000000000E+000
                    75 -4.677633885919273E-005
                    76  0.000000000000000E+000
                    77  0.000000000000000E+000
                    78 -5.119961220791164E-005
                    79 -2.391865089331752E-005
                    80 -1.347944671479366E-004
                    81  0.000000000000000E+000
                    82  0.000000000000000E+000
                    83  2.437854599475532E-005
                    84 -1.308259462693290E-005
                    85  0.000000000000000E+000
                    86  9.188821068444392E-006
                    87 -4.592805745440440E-005
                    88  0.000000000000000E+000
                    89  0.000000000000000E+000
                    90 -3.063254156517510E-005
                    91 -1.562471525417999E-004
                    92 -1.752699053802483E-004
                    93 -5.408823873118813E-004
                    94  1.512619630943806E-004
                    95 -5.764860658462077E-005
                    96  9.001389064765869E-005
                    97 -9.643658369990229E-005
                    98  0.000000000000000E+000
                    99  3.366679375662993E-004
                   100  3.728835622163535E-004
                   101  0.000000000000000E+000
                   102  6.200538251047572E-004
                   103 -1.699976386869879E-003
                   104  0.000000000000000E+000
                   105 -1.407441343426451E-005
                   106  0.000000000000000E+000
                   107  0.000000000000000E+000
                   108 -3.657666897991784E-005
                   109 -1.223148187935386E-005
                   110  7.762154496091981E-005
                   111  0.000000000000000E+000
                   112  0.000000000000000E+000
                   113 -1.558133690325162E-004
                   114  1.046299035525444E-004
                   115  0.000000000000000E+000
                   116 -1.788383367156477E-005
                   117 -2.172126853757587E-005
                   118  0.000000000000000E+000
                   119  0.000000000000000E+000
                   120 -9.828802307873285E-006
                   121 -4.175635882378293E-005
                   122 -2.420314514914662E-004
                   123 -6.525937372296750E-004
                   124  1.721314876394469E-004
                   125  2.900266959490537E-004
                   126 -3.449656096262700E-005
                   127 -2.369506813035956E-004
                   128  0.000000000000000E+000
                   129  2.344935018261829E-004
                   130  6.475395594378401E-004
                   131  0.000000000000000E+000
                   132  4.234262004291868E-004
                   133  1.932173666253204E-003
                   134  0.000000000000000E+000
                   135  1.503644058358744E-005
                   136  0.000000000000000E+000
                   137  0.000000000000000E+000
                   138  4.869872647741060E-005
                   139 -3.590788966208288E-006
                   140  2.047597830682001E-004
                   141  0.000000000000000E+000
                   142  0.000000000000000E+000
                   143  3.952689604548248E-004
                   144  2.150973523817383E-004
                   145  0.000000000000000E+000
                   146 -1.209313500783778E-005
                   147 -6.391708377162050E-005
                   148  0.000000000000000E+000
                   149  0.000000000000000E+000
                   150 -1.199805447631851E-005
                   151 -5.553546861132084E-005
                   152 -1.325425444108083E-004
                   153 -4.076669140438259E-004
                   154  5.539420464056431E-005
                   155  1.966822506010207E-004
                   156  7.666027429914565E-006
                   157 -1.627683405713735E-005
                   158  0.000000000000000E+000
                   159 -3.267488209768482E-006
                   160  4.706104763047261E-005
                   161  0.000000000000000E+000
                   162  7.356345890005728E-004
                   163 -3.614565109974130E-004
                   164  0.000000000000000E+000
                   165  2.026890526302971E-006
                   166  0.000000000000000E+000
                   167  0.000000000000000E+000
                   168  4.469210742434892E-006
                   169  1.261661192998826E-005
                   170  1.066317728447358E-004
                   171  0.000000000000000E+000
                   172  0.000000000000000E+000
                   173  4.752331167514026E-005
                   174  3.812581873012545E-005
                   175  0.000000000000000E+000
                   176  4.216607746727786E-006
                   177 -1.399922712431289E-005
                   178  0.000000000000000E+000
                   179  0.000000000000000E+000
                   180 -2.506167076751825E-005
                   181 -3.020081072196204E-005
                   182 -1.359244808631403E-004
                   183 -4.009650428170734E-004
                   184  3.105120832557754E-005
                   185  2.089620375069272E-004
                   186 -4.577893062697359E-005
                   187 -6.031715012524261E-005
                   188  0.000000000000000E+000
                   189  2.574124835896883E-004
                   190  1.193230172209039E-004
                   191  0.000000000000000E+000
                   192  1.303072791178005E-003
                   193 -3.102505039449245E-004
                   194  0.000000000000000E+000
                   195  8.848804843330497E-007
                   196  0.000000000000000E+000
                   197  0.000000000000000E+000
                   198 -2.592053981576934E-006
                   199  4.163478738558410E-006
                   200 -8.078279346951085E-006
                   201  0.000000000000000E+000
                   202  0.000000000000000E+000
                   203 -6.676226156171294E-005
                   204 -1.978162510756212E-004
                   205  0.000000000000000E+000
                   206 -9.471761655041540E-006
                   207 -3.837012353435472E-006
                   208  0.000000000000000E+000
                   209  0.000000000000000E+000
                   210  7.822179228760850E-006
                   211 -3.921501050760241E-006
                   212 -2.396574454473405E-005
                   213  1.076914548082463E-004
                   214  1.979733555142248E-005
                   215  2.692425865540585E-005
                   216  0.000000000000000E+000
                   217 -1.145136938531127E-003
                   218 -4.627897992715164E-004
                   219 -2.126139387615405E-004
                   220  4.169416733404850E-005
                   221  0.000000000000000E+000
                   222 -1.677357511893540E-004
                   223 -6.335947097850125E-004
                   224  2.385073684590978E-005
                   225 -5.899537766690850E-005
                   226  0.000000000000000E+000
                   227  8.623599698811068E-005
                   228 -6.423243745957703E-004
                   229 -4.453037681341255E-005
                   230 -1.511988214871374E-005
                   231  0.000000000000000E+000
                   232  4.078155499094188E-005
                   233 -4.660909359760058E-004
                   234  1.439078276274873E-005
                   235 -4.102518195096420E-006
                   236  0.000000000000000E+000
                   237  3.470577031372482E-005
                   238 -3.575635422152400E-004
                   239 -9.341432050010305E-006
                   240 -3.032224041502018E-006
                   241  0.000000000000000E+000
                   242 -7.052369066144656E-005
                   243  9.032832566405862E-005
                   244 -2.228634049251132E-008
                   245  2.962301703493708E-005
                   246  0.000000000000000E+000
 Sym= __2_A'_
 Ene=   2.00000000000000     
 Spin= Alpha
 Occup=    1.00000000000000     
                     1  4.662278222346062E-005
                     2  3.247217484224725E-004
                     3 -3.036193791938143E-003
                     4 -1.161017182808756E-004
                     5 -1.344491194801551E-003
                     6  4.137104989970936E-004
                     7 -2.879185976189197E-003
                     8  0.000000000000000E+000
                     9  2.121425119240588E-005
                    10  1.066031955408828E-004
                    11  0.000000000000000E+000
                    12  3.789943064403359E-005
                    13  2.883076853370988E-004
                    14  0.000000000000000E+000
                    15 -2.530872548833696E-005
                    16  0.000000000000000E+000
                    17  0.000000000000000E+000
                    18  4.776770267870794E-005
                    19 -2.039089414238016E-005
                    20  1.188041923371742E-004
                    21  0.000000000000000E+000
                    22  0.000000000000000E+000
                    23 -1.059852048556711E-004
                    24  1.508503443985068E-004
                    25  0.000000000000000E+000
                    26  1.783123078769274E-005
                    27 -9.256760848103935E-005
                    28  0.000000000000000E+000
                    29  0.000000000000000E+000
                    30  6.543771150190719E-005
                    31 -1.452986593780538E-004
                    32  -1.00088144009446     
                    33 -9.054568098449386E-003
                    34 -2.767732505258128E-003
                    35  8.074323016652878E-003
                    36  2.142161464171807E-004
                    37  3.381888708853876E-003
                    38  0.000000000000000E+000
                    39  1.410273767074942E-004
                    40 -2.238099722360495E-004
                    41  0.000000000000000E+000
                    42  1.616605901752837E-004
                    43 -4.050616093318871E-003
                    44  0.000000000000000E+000
                    45  5.244320261316987E-004
                    46  0.000000000000000E+000
                    47  0.000000000000000E+000
                    48  1.979143811107284E-004
                    49 -3.138479322238241E-005
                    50 -5.538986333526012E-004
                    51  0.000000000000000E+000
                    52  0.000000000000000E+000
                    53  6.593769017260370E-004
                    54  4.297402498988907E-004
                    55  0.000000000000000E+000
                    56 -1.432041819707089E-005
                    57 -9.907042910341598E-005
                    58  0.000000000000000E+000
                    59  0.000000000000000E+000
                    60  2.257572781831258E-005
                    61 -3.786073103899620E-004
                    62 -1.273406786641496E-002
                    63  2.066016946589873E-003
                    64  2.323571170058893E-004
                    65 -2.693299844046548E-003
                    66 -9.251960469785905E-006
                    67 -1.633226683751227E-004
                    68  0.000000000000000E+000
                    69 -5.075490240627652E-004
                    70 -1.609948756433521E-004
                    71  0.000000000000000E+000
                    72  2.094362399025769E-003
                    73 -2.607109497567475E-004
                    74  0.000000000000000E+000
                    75 -3.507272787688886E-005
                    76  0.000000000000000E+000
                    77  0.000000000000000E+000
                    78  1.060873737946777E-005
                    79 -4.178516857738036E-006
                    80  4.275147770038111E-004
                    81  0.000000000000000E+000
                    82  0.000000000000000E+000
                    83  6.668590217388222E-004
                    84  2.623330093198301E-004
                    85  0.000000000000000E+000
                    86 -2.957809997228188E-005
                    87  5.848464091932495E-005
                    88  0.000000000000000E+000
                    89  0.000000000000000E+000
                    90 -4.749220285275805E-005
                    91 -1.478374698815708E-004
                    92 -1.565272320998943E-002
                    93  2.144557164654171E-003
                    94  2.997860103780961E-004
                    95 -3.183057235012984E-003
                    96 -2.563354105664350E-004
                    97 -2.728183614706100E-004
                    98  0.000000000000000E+000
                    99  9.403539871798098E-004
                   100  9.271039166187578E-007
                   101  0.000000000000000E+000
                   102 -1.693819674511718E-003
                   103  2.956941029482046E-005
                   104  0.000000000000000E+000
                   105 -2.323024472669538E-005
                   106  0.000000000000000E+000
                   107  0.000000000000000E+000
                   108  1.085354110075971E-005
                   109 -2.703326825829182E-006
                   110  4.183999123966421E-004
                   111  0.000000000000000E+000
                   112  0.000000000000000E+000
                   113  3.923439302733528E-004
                   114 -2.400778921403540E-004
                   115  0.000000000000000E+000
                   116  3.169466025553379E-005
                   117  7.361437080445252E-005
                   118  0.000000000000000E+000
                   119  0.000000000000000E+000
                   120  2.134411759116715E-006
                   121 -1.345842024377401E-004
                   122  5.905330616629188E-005
                   123  6.407164168392774E-004
                   124 -2.296614601689722E-004
                   125  1.343909337830400E-004
                   126 -2.748432581582019E-006
                   127  4.330194408458941E-004
                   128  0.000000000000000E+000
                   129  7.861568629739977E-005
                   130 -6.256218595390698E-004
                   131  0.000000000000000E+000
                   132 -3.701562071607644E-004
                   133 -9.305445838715565E-004
                   134  0.000000000000000E+000
                   135 -1.836222270642469E-005
                   136  0.000000000000000E+000
                   137  0.000000000000000E+000
                   138 -2.190524234834620E-006
                   139 -4.462401229510325E-005
                   140 -1.287766372826421E-004
                   141  0.000000000000000E+000
                   142  0.000000000000000E+000
                   143 -2.585062909228818E-004
                   144  1.041329469510230E-004
                   145  0.000000000000000E+000
                   146 -9.115146400638974E-006
                   147  3.639514350535557E-005
                   148  0.000000000000000E+000
                   149  0.000000000000000E+000
                   150  4.328815151496526E-005
                   151 -3.782813365611773E-005
                   152 -1.637845002338913E-004
                   153  5.993192053713424E-004
                   154 -2.288428253229396E-004
                   155  4.809855465252367E-005
                   156  4.352109188757642E-005
                   157  4.828587882241754E-004
                   158  0.000000000000000E+000
                   159 -1.342716297184135E-004
                   160 -5.508941609401292E-004