[Molden Format]
[Atoms] AU
  N     1    7    -0.0056078000   -4.2818552200    0.0000000100        
  C     2    6     0.1023880000   -1.7452831600    0.0000000000        
  C     3    6    -2.2360633200   -0.3803470300    0.0000000200        
  C     4    6     2.3914369100   -0.2937808000   -0.0000000300        
  C     5    6    -2.2500272700    2.2016241100   -0.0000000100        
  C     6    6     2.3278224000    2.2854989300    0.0000000000        
  C     7    6     0.0186025300    3.5636975500    0.0000000000        
  H     8    1    -3.9506348300   -7.2105341300    0.0000000200        
  H     9    1     1.8026092300   -5.0070519500    0.0000000000        
  H    10    1    -3.9595274700   -1.4427187200    0.0000000100        
  H    11    1     4.1659200800   -1.2794669300   -0.0000000300        
  H    12    1    -4.0138949200    3.2050827200   -0.0000000400        
  H    13    1     4.0574247600    3.3470683800    0.0000000300        
  H    14    1    -0.0176804700    5.5913906500    0.0000000100        
[5D]
[7F]
[GTO]
  1  0
   s    12 1.00
  0.114200D+05  0.172695D-04
  0.171200D+04  0.134411D-03
  0.389300D+03  0.694561D-03
  0.110000D+03  0.278531D-02
  0.355700D+02  0.863457D-02
  0.125400D+02  0.199805D-01
  0.464400D+01  0.262908D-01
  0.129300D+01 -0.243845D-01
  0.511800D+00 -0.924934D-01
  0.178700D+00 -0.339683D+00
  0.246240D-01  0.345111D+00
  0.112530D-01  0.752750D+00
   s    10 1.00
  0.114200D+05  0.523000D-03
  0.171200D+04  0.404500D-02
  0.389300D+03  0.207750D-01
  0.110000D+03  0.807269D-01
  0.355700D+02  0.233074D+00
  0.125400D+02  0.433501D+00
  0.464400D+01  0.347472D+00
  0.129300D+01  0.412620D-01
  0.511800D+00 -0.850799D-02
  0.178700D+00  0.238400D-02
   s    10 1.00
  0.114200D+05 -0.115000D-03
  0.171200D+04 -0.895000D-03
  0.389300D+03 -0.462400D-02
  0.110000D+03 -0.185280D-01
  0.355700D+02 -0.573390D-01
  0.125400D+02 -0.132076D+00
  0.464400D+01 -0.172510D+00
  0.129300D+01  0.151814D+00
  0.511800D+00  0.599944D+00
  0.178700D+00  0.387462D+00
   s     1 1.00
  0.129300D+01  0.100000D+01
   s     1 1.00
  0.178700D+00  0.100000D+01
   p     5 1.00
  0.266300D+02  0.146700D-01
  0.594800D+01  0.917640D-01
  0.174200D+01  0.298683D+00
  0.555000D+00  0.498487D+00
  0.172500D+00  0.337023D+00
   p     1 1.00
  0.174200D+01  0.100000D+01
   p     1 1.00
  0.555000D+00  0.100000D+01
   d     1 1.00
  0.165400D+01  0.100000D+01
   d     1 1.00
  0.469000D+00  0.100000D+01
   f     1 1.00
  0.109300D+01  0.100000D+01
  
  2  0
   s    10 1.00
  0.823600D+04  0.531000D-03
  0.123500D+04  0.410800D-02
  0.280800D+03  0.210870D-01
  0.792700D+02  0.818530D-01
  0.255900D+02  0.234817D+00
  0.899700D+01  0.434401D+00
  0.331900D+01  0.346129D+00
  0.905900D+00  0.393780D-01
  0.364300D+00 -0.898300D-02
  0.128500D+00  0.238500D-02
   s    10 1.00
  0.823600D+04 -0.113000D-03
  0.123500D+04 -0.878000D-03
  0.280800D+03 -0.454000D-02
  0.792700D+02 -0.181330D-01
  0.255900D+02 -0.557600D-01
  0.899700D+01 -0.126895D+00
  0.331900D+01 -0.170352D+00
  0.905900D+00  0.140382D+00
  0.364300D+00  0.598684D+00
  0.128500D+00  0.395389D+00
   s     1 1.00
  0.905900D+00  0.100000D+01
   s     1 1.00
  0.364300D+00  0.100000D+01
   p     5 1.00
  0.187100D+02  0.140310D-01
  0.413300D+01  0.868660D-01
  0.120000D+01  0.290216D+00
  0.382700D+00  0.501008D+00
  0.120900D+00  0.343406D+00
   p     1 1.00
  0.382700D+00  0.100000D+01
   p     1 1.00
  0.120900D+00  0.100000D+01
   d     1 1.00
  0.109700D+01  0.100000D+01
   d     1 1.00
  0.318000D+00  0.100000D+01
   f     1 1.00
  0.761000D+00  0.100000D+01
  
  3  0
   s    10 1.00
  0.823600D+04  0.531000D-03
  0.123500D+04  0.410800D-02
  0.280800D+03  0.210870D-01
  0.792700D+02  0.818530D-01
  0.255900D+02  0.234817D+00
  0.899700D+01  0.434401D+00
  0.331900D+01  0.346129D+00
  0.905900D+00  0.393780D-01
  0.364300D+00 -0.898300D-02
  0.128500D+00  0.238500D-02
   s    10 1.00
  0.823600D+04 -0.113000D-03
  0.123500D+04 -0.878000D-03
  0.280800D+03 -0.454000D-02
  0.792700D+02 -0.181330D-01
  0.255900D+02 -0.557600D-01
  0.899700D+01 -0.126895D+00
  0.331900D+01 -0.170352D+00
  0.905900D+00  0.140382D+00
  0.364300D+00  0.598684D+00
  0.128500D+00  0.395389D+00
   s     1 1.00
  0.905900D+00  0.100000D+01
   s     1 1.00
  0.364300D+00  0.100000D+01
   p     5 1.00
  0.187100D+02  0.140310D-01
  0.413300D+01  0.868660D-01
  0.120000D+01  0.290216D+00
  0.382700D+00  0.501008D+00
  0.120900D+00  0.343406D+00
   p     1 1.00
  0.382700D+00  0.100000D+01
   p     1 1.00
  0.120900D+00  0.100000D+01
   d     1 1.00
  0.109700D+01  0.100000D+01
   d     1 1.00
  0.318000D+00  0.100000D+01
   f     1 1.00
  0.761000D+00  0.100000D+01
  
  4  0
   s    10 1.00
  0.823600D+04  0.531000D-03
  0.123500D+04  0.410800D-02
  0.280800D+03  0.210870D-01
  0.792700D+02  0.818530D-01
  0.255900D+02  0.234817D+00
  0.899700D+01  0.434401D+00
  0.331900D+01  0.346129D+00
  0.905900D+00  0.393780D-01
  0.364300D+00 -0.898300D-02
  0.128500D+00  0.238500D-02
   s    10 1.00
  0.823600D+04 -0.113000D-03
  0.123500D+04 -0.878000D-03
  0.280800D+03 -0.454000D-02
  0.792700D+02 -0.181330D-01
  0.255900D+02 -0.557600D-01
  0.899700D+01 -0.126895D+00
  0.331900D+01 -0.170352D+00
  0.905900D+00  0.140382D+00
  0.364300D+00  0.598684D+00
  0.128500D+00  0.395389D+00
   s     1 1.00
  0.905900D+00  0.100000D+01
   s     1 1.00
  0.364300D+00  0.100000D+01
   p     5 1.00
  0.187100D+02  0.140310D-01
  0.413300D+01  0.868660D-01
  0.120000D+01  0.290216D+00
  0.382700D+00  0.501008D+00
  0.120900D+00  0.343406D+00
   p     1 1.00
  0.382700D+00  0.100000D+01
   p     1 1.00
  0.120900D+00  0.100000D+01
   d     1 1.00
  0.109700D+01  0.100000D+01
   d     1 1.00
  0.318000D+00  0.100000D+01
   f     1 1.00
  0.761000D+00  0.100000D+01
  
  5  0
   s    10 1.00
  0.823600D+04  0.531000D-03
  0.123500D+04  0.410800D-02
  0.280800D+03  0.210870D-01
  0.792700D+02  0.818530D-01
  0.255900D+02  0.234817D+00
  0.899700D+01  0.434401D+00
  0.331900D+01  0.346129D+00
  0.905900D+00  0.393780D-01
  0.364300D+00 -0.898300D-02
  0.128500D+00  0.238500D-02
   s    10 1.00
  0.823600D+04 -0.113000D-03
  0.123500D+04 -0.878000D-03
  0.280800D+03 -0.454000D-02
  0.792700D+02 -0.181330D-01
  0.255900D+02 -0.557600D-01
  0.899700D+01 -0.126895D+00
  0.331900D+01 -0.170352D+00
  0.905900D+00  0.140382D+00
  0.364300D+00  0.598684D+00
  0.128500D+00  0.395389D+00
   s     1 1.00
  0.905900D+00  0.100000D+01
   s     1 1.00
  0.364300D+00  0.100000D+01
   p     5 1.00
  0.187100D+02  0.140310D-01
  0.413300D+01  0.868660D-01
  0.120000D+01  0.290216D+00
  0.382700D+00  0.501008D+00
  0.120900D+00  0.343406D+00
   p     1 1.00
  0.382700D+00  0.100000D+01
   p     1 1.00
  0.120900D+00  0.100000D+01
   d     1 1.00
  0.109700D+01  0.100000D+01
   d     1 1.00
  0.318000D+00  0.100000D+01
   f     1 1.00
  0.761000D+00  0.100000D+01
  
  6  0
   s    10 1.00
  0.823600D+04  0.531000D-03
  0.123500D+04  0.410800D-02
  0.280800D+03  0.210870D-01
  0.792700D+02  0.818530D-01
  0.255900D+02  0.234817D+00
  0.899700D+01  0.434401D+00
  0.331900D+01  0.346129D+00
  0.905900D+00  0.393780D-01
  0.364300D+00 -0.898300D-02
  0.128500D+00  0.238500D-02
   s    10 1.00
  0.823600D+04 -0.113000D-03
  0.123500D+04 -0.878000D-03
  0.280800D+03 -0.454000D-02
  0.792700D+02 -0.181330D-01
  0.255900D+02 -0.557600D-01
  0.899700D+01 -0.126895D+00
  0.331900D+01 -0.170352D+00
  0.905900D+00  0.140382D+00
  0.364300D+00  0.598684D+00
  0.128500D+00  0.395389D+00
   s     1 1.00
  0.905900D+00  0.100000D+01
   s     1 1.00
  0.364300D+00  0.100000D+01
   p     5 1.00
  0.187100D+02  0.140310D-01
  0.413300D+01  0.868660D-01
  0.120000D+01  0.290216D+00
  0.382700D+00  0.501008D+00
  0.120900D+00  0.343406D+00
   p     1 1.00
  0.382700D+00  0.100000D+01
   p     1 1.00
  0.120900D+00  0.100000D+01
   d     1 1.00
  0.109700D+01  0.100000D+01
   d     1 1.00
  0.318000D+00  0.100000D+01
   f     1 1.00
  0.761000D+00  0.100000D+01
  
  7  0
   s    10 1.00
  0.823600D+04  0.531000D-03
  0.123500D+04  0.410800D-02
  0.280800D+03  0.210870D-01
  0.792700D+02  0.818530D-01
  0.255900D+02  0.234817D+00
  0.899700D+01  0.434401D+00
  0.331900D+01  0.346129D+00
  0.905900D+00  0.393780D-01
  0.364300D+00 -0.898300D-02
  0.128500D+00  0.238500D-02
   s    10 1.00
  0.823600D+04 -0.113000D-03
  0.123500D+04 -0.878000D-03
  0.280800D+03 -0.454000D-02
  0.792700D+02 -0.181330D-01
  0.255900D+02 -0.557600D-01
  0.899700D+01 -0.126895D+00
  0.331900D+01 -0.170352D+00
  0.905900D+00  0.140382D+00
  0.364300D+00  0.598684D+00
  0.128500D+00  0.395389D+00
   s     1 1.00
  0.905900D+00  0.100000D+01
   s     1 1.00
  0.364300D+00  0.100000D+01
   p     5 1.00
  0.187100D+02  0.140310D-01
  0.413300D+01  0.868660D-01
  0.120000D+01  0.290216D+00
  0.382700D+00  0.501008D+00
  0.120900D+00  0.343406D+00
   p     1 1.00
  0.382700D+00  0.100000D+01
   p     1 1.00
  0.120900D+00  0.100000D+01
   d     1 1.00
  0.109700D+01  0.100000D+01
   d     1 1.00
  0.318000D+00  0.100000D+01
   f     1 1.00
  0.761000D+00  0.100000D+01
  
  8  0
   s     4 1.00
  0.130100D+02  0.196850D-01
  0.196200D+01  0.137977D+00
  0.444600D+00  0.478148D+00
  0.122000D+00  0.501240D+00
   s     1 1.00
  0.122000D+00  0.100000D+01
   p     1 1.00
  0.727000D+00  0.100000D+01
  
  9  0
   s     4 1.00
  0.130100D+02  0.196850D-01
  0.196200D+01  0.137977D+00
  0.444600D+00  0.478148D+00
  0.122000D+00  0.501240D+00
   s     1 1.00
  0.122000D+00  0.100000D+01
   p     1 1.00
  0.727000D+00  0.100000D+01
  
 10  0
   s     4 1.00
  0.130100D+02  0.196850D-01
  0.196200D+01  0.137977D+00
  0.444600D+00  0.478148D+00
  0.122000D+00  0.501240D+00
   s     1 1.00
  0.122000D+00  0.100000D+01
   p     1 1.00
  0.727000D+00  0.100000D+01
  
 11  0
   s     4 1.00
  0.130100D+02  0.196850D-01
  0.196200D+01  0.137977D+00
  0.444600D+00  0.478148D+00
  0.122000D+00  0.501240D+00
   s     1 1.00
  0.122000D+00  0.100000D+01
   p     1 1.00
  0.727000D+00  0.100000D+01
  
 12  0
   s     4 1.00
  0.130100D+02  0.196850D-01
  0.196200D+01  0.137977D+00
  0.444600D+00  0.478148D+00
  0.122000D+00  0.501240D+00
   s     1 1.00
  0.122000D+00  0.100000D+01
   p     1 1.00
  0.727000D+00  0.100000D+01
  
 13  0
   s     4 1.00
  0.130100D+02  0.196850D-01
  0.196200D+01  0.137977D+00
  0.444600D+00  0.478148D+00
  0.122000D+00  0.501240D+00
   s     1 1.00
  0.122000D+00  0.100000D+01
   p     1 1.00
  0.727000D+00  0.100000D+01
  
 14  0
   s     4 1.00
  0.130100D+02  0.196850D-01
  0.196200D+01  0.137977D+00
  0.444600D+00  0.478148D+00
  0.122000D+00  0.501240D+00
   s     1 1.00
  0.122000D+00  0.100000D+01
   p     1 1.00
  0.727000D+00  0.100000D+01
  
[MO]
 Sym= __1_A'_
 Ene=  0.000000000000000E+000
 Spin= Alpha
 Occup=    2.00000000000000     
                     1  9.618737866949630E-005
                     2  0.998372849216826     
                     3 -3.760434164092668E-003
                     4  1.845274445865211E-003
                     5  6.542262261696177E-003
                     6  2.748470432884146E-003
                     7  5.643827235774751E-003
                     8  0.000000000000000E+000
                     9 -7.180682318496334E-004
                    10 -7.343502125368440E-004
                    11  0.000000000000000E+000
                    12 -2.458055408984075E-003
                    13 -1.970699164656612E-003
                    14  0.000000000000000E+000
                    15 -2.608975373782090E-005
                    16  0.000000000000000E+000
                    17  0.000000000000000E+000
                    18 -1.480681781073867E-004
                    19 -6.218381117221864E-005
                    20  1.037141172867854E-004
                    21  0.000000000000000E+000
                    22  0.000000000000000E+000
                    23 -1.827562881906255E-004
                    24  4.820292014185066E-004
                    25  0.000000000000000E+000
                    26 -3.534002171543308E-006
                    27 -4.409624495925623E-005
                    28  0.000000000000000E+000
                    29  0.000000000000000E+000
                    30  3.337994956926493E-005
                    31 -1.017586142194725E-004
                    32 -3.107054311109685E-004
                    33  3.648363964908147E-005
                    34  3.162277966221828E-004
                    35 -9.736346798702513E-005
                    36 -5.384434210284787E-005
                    37 -2.025545535971699E-003
                    38  0.000000000000000E+000
                    39  3.529418436546043E-004
                    40  1.200661066157628E-004
                    41  0.000000000000000E+000
                    42 -2.068381938493780E-003
                    43  4.825683111821538E-003
                    44  0.000000000000000E+000
                    45  1.173867494028662E-005
                    46  0.000000000000000E+000
                    47  0.000000000000000E+000
                    48 -1.032196544452810E-004
                    49  1.239326487762429E-005
                    50 -1.894280240985788E-004
                    51  0.000000000000000E+000
                    52  0.000000000000000E+000
                    53  5.196900072053946E-006
                    54  7.604566205531310E-004
                    55  0.000000000000000E+000
                    56 -3.560055689538475E-006
                    57 -7.896018867332912E-005
                    58  0.000000000000000E+000
                    59  0.000000000000000E+000
                    60  1.794156139688425E-005
                    61 -1.324636778680401E-004
                    62 -5.378228904730803E-004
                    63 -2.027528128865763E-003
                    64 -9.430797472944298E-005
                    65  2.215180892038068E-003
                    66 -3.511610049892286E-004
                    67 -4.221372383262071E-006
                    68  0.000000000000000E+000
                    69  3.726806623781900E-004
                    70  8.822572999776188E-004
                    71  0.000000000000000E+000
                    72 -1.785105875104754E-003
                    73  6.489404620640789E-004
                    74  0.000000000000000E+000
                    75 -4.677637119111315E-005
                    76  0.000000000000000E+000
                    77  0.000000000000000E+000
                    78 -5.119964592278332E-005
                    79 -2.391884958094639E-005
                    80 -1.347945544645756E-004
                    81  0.000000000000000E+000
                    82  0.000000000000000E+000
                    83  2.437856409859740E-005
                    84 -1.308262938319349E-005
                    85  0.000000000000000E+000
                    86  9.188780986872291E-006
                    87 -4.592804132260180E-005
                    88  0.000000000000000E+000
                    89  0.000000000000000E+000
                    90 -3.063252476853059E-005
                    91 -1.562471901359524E-004
                    92 -1.752696915513879E-004
                    93 -5.408876637256186E-004
                    94  1.512619998745236E-004
                    95 -5.764815255567977E-005
                    96  9.001802902052790E-005
                    97 -9.642504056759488E-005
                    98  0.000000000000000E+000
                    99  3.366677456541078E-004
                   100  3.728823841684280E-004
                   101  0.000000000000000E+000
                   102  6.200529506211246E-004
                   103 -1.699978469924381E-003
                   104  0.000000000000000E+000
                   105 -1.407433526740057E-005
                   106  0.000000000000000E+000
                   107  0.000000000000000E+000
                   108 -3.657692315871492E-005
                   109 -1.223170077253099E-005
                   110  7.762164159038546E-005
                   111  0.000000000000000E+000
                   112  0.000000000000000E+000
                   113 -1.558131902610364E-004
                   114  1.046294483814816E-004
                   115  0.000000000000000E+000
                   116 -1.788388529985285E-005
                   117 -2.172136019397187E-005
                   118  0.000000000000000E+000
                   119  0.000000000000000E+000
                   120 -9.828751193794832E-006
                   121 -4.175630170853990E-005
                   122 -2.420314408768927E-004
                   123 -6.525936867008775E-004
                   124  1.721314582546359E-004
                   125  2.900266498887703E-004
                   126 -3.449700649558530E-005
                   127 -2.369517315344224E-004
                   128  0.000000000000000E+000
                   129  2.344934695943398E-004
                   130  6.475394860083142E-004
                   131  0.000000000000000E+000
                   132  4.234255585485045E-004
                   133  1.932172906758439E-003
                   134  0.000000000000000E+000
                   135  1.503643312240067E-005
                   136  0.000000000000000E+000
                   137  0.000000000000000E+000
                   138  4.869869996289394E-005
                   139 -3.590885402756559E-006
                   140  2.047597774779672E-004
                   141  0.000000000000000E+000
                   142  0.000000000000000E+000
                   143  3.952687700515086E-004
                   144  2.150972017452701E-004
                   145  0.000000000000000E+000
                   146 -1.209313675574448E-005
                   147 -6.391706697733648E-005
                   148  0.000000000000000E+000
                   149  0.000000000000000E+000
                   150 -1.199802400513136E-005
                   151 -5.553547225201346E-005
                   152 -1.325425467562577E-004
                   153 -4.076632580785657E-004
                   154  5.539407184505933E-005
                   155  1.966823432978599E-004
                   156  7.664812355259102E-006
                   157 -1.628360301311093E-005
                   158  0.000000000000000E+000
                   159 -3.267281291118903E-006
                   160  4.706135738557435E-005
                   161  0.000000000000000E+000
                   162  7.356343375308777E-004
                   163 -3.614554094854833E-004
                   164  0.000000000000000E+000
                   165  2.026817013947314E-006
                   166  0.000000000000000E+000
                   167  0.000000000000000E+000
                   168  4.468996225773672E-006
                   169  1.261650522260545E-005
                   170  1.066316516449300E-004
                   171  0.000000000000000E+000
                   172  0.000000000000000E+000
                   173  4.752310301270520E-005
                   174  3.812572742485916E-005
                   175  0.000000000000000E+000
                   176  4.216614475458998E-006
                   177 -1.399917778194546E-005
                   178  0.000000000000000E+000
                   179  0.000000000000000E+000
                   180 -2.506164777954662E-005
                   181 -3.020072801074718E-005
                   182 -1.359244712308856E-004
                   183 -4.009653726571559E-004
                   184  3.105120421174636E-005
                   185  2.089620527536047E-004
                   186 -4.577850342836945E-005
                   187 -6.031633530365723E-005
                   188  0.000000000000000E+000
                   189  2.574123909922119E-004
                   190  1.193228272825740E-004
                   191  0.000000000000000E+000
                   192  1.303072159506551E-003
                   193 -3.102500396119209E-004
                   194  0.000000000000000E+000
                   195  8.848762171626136E-007
                   196  0.000000000000000E+000
                   197  0.000000000000000E+000
                   198 -2.592165628322350E-006
                   199  4.163431612150667E-006
                   200 -8.078211748267057E-006
                   201  0.000000000000000E+000
                   202  0.000000000000000E+000
                   203 -6.676231622136502E-005
                   204 -1.978162775335391E-004
                   205  0.000000000000000E+000
                   206 -9.471755532774420E-006
                   207 -3.837010854373973E-006
                   208  0.000000000000000E+000
                   209  0.000000000000000E+000
                   210  7.822196815433694E-006
                   211 -3.921477671250845E-006
                   212 -2.396579732720147E-005
                   213  1.076912858529469E-004
                   214  1.979732310684758E-005
                   215  2.692424460888333E-005
                   216  0.000000000000000E+000
                   217 -1.145138663982737E-003
                   218 -4.627886762884864E-004
                   219 -2.126137970637228E-004
                   220  4.169401956538886E-005
                   221  0.000000000000000E+000
                   222 -1.677403279035336E-004
                   223 -6.335932517955197E-004
                   224  2.385056208334003E-005
                   225 -5.899553509974003E-005
                   226  0.000000000000000E+000
                   227  8.623234181171936E-005
                   228 -6.423224558370988E-004
                   229 -4.453004464223626E-005
                   230 -1.511987420432824E-005
                   231  0.000000000000000E+000
                   232  4.078193184095389E-005
                   233 -4.660907603484142E-004
                   234  1.439078841820670E-005
                   235 -4.102524265015503E-006
                   236  0.000000000000000E+000
                   237  3.470231417652031E-005
                   238 -3.575627686375249E-004
                   239 -9.341261254654445E-006
                   240 -3.032216780740353E-006
                   241  0.000000000000000E+000
                   242 -7.052240106598621E-005
                   243  9.032807939636006E-005
                   244 -2.228744734909802E-008
                   245  2.962295099041485E-005
                   246  0.000000000000000E+000
 Sym= __2_A'_
 Ene=  0.000000000000000E+000
 Spin= Alpha
 Occup=    2.00000000000000     
                     1  4.662271831382196E-005
                     2  3.247250678669883E-004
                     3 -3.036195510430174E-003
                     4 -1.161016764285678E-004
                     5 -1.344491163538411E-003
                     6  4.137088145778606E-004
                     7 -2.879187133802864E-003
                     8  0.000000000000000E+000
                     9  2.121420552395625E-005
                    10  1.066031849879271E-004
                    11  0.000000000000000E+000
                    12  3.789944202399236E-005
                    13  2.883075596074187E-004
                    14  0.000000000000000E+000
                    15 -2.530869494083541E-005
                    16  0.000000000000000E+000
                    17  0.000000000000000E+000
                    18  4.776771840130992E-005
                    19 -2.039094748478337E-005
                    20  1.188043139517635E-004
                    21  0.000000000000000E+000
                    22  0.000000000000000E+000
                    23 -1.059850744801856E-004
                    24  1.508500317639685E-004
                    25  0.000000000000000E+000
                    26  1.783125544479106E-005
                    27 -9.256756867684937E-005
                    28  0.000000000000000E+000
                    29  0.000000000000000E+000
                    30  6.543766459137449E-005
                    31 -1.452986517038539E-004
                    32  -1.00088144517478     
                    33 -9.054575758839232E-003
                    34 -2.767732603698218E-003
                    35  8.074324461394944E-003
                    36  2.142070804870447E-004
                    37  3.381888069357769E-003
                    38  0.000000000000000E+000
                    39  1.410278734527481E-004
                    40 -2.238101111876187E-004
                    41  0.000000000000000E+000
                    42  1.616633270739866E-004
                    43 -4.050616858584035E-003
                    44  0.000000000000000E+000
                    45  5.244321462894361E-004
                    46  0.000000000000000E+000
                    47  0.000000000000000E+000
                    48  1.979143117179284E-004
                    49 -3.138501969614339E-005
                    50 -5.538985669398049E-004
                    51  0.000000000000000E+000
                    52  0.000000000000000E+000
                    53  6.593769699139640E-004
                    54  4.297397960198930E-004
                    55  0.000000000000000E+000
                    56 -1.432032597781739E-005
                    57 -9.907040135907881E-005
                    58  0.000000000000000E+000
                    59  0.000000000000000E+000
                    60  2.257571091006770E-005
                    61 -3.786074718295586E-004
                    62 -1.273395069704827E-002
                    63  2.066020360379776E-003
                    64  2.323574551983324E-004
                    65 -2.693301204220228E-003
                    66 -9.249072821873835E-006
                    67 -1.633231529241723E-004
                    68  0.000000000000000E+000
                    69 -5.075493938714114E-004
                    70 -1.609950996364311E-004
                    71  0.000000000000000E+000
                    72  2.094363201668013E-003
                    73 -2.607113087121927E-004
                    74  0.000000000000000E+000
                    75 -3.507280445847166E-005
                    76  0.000000000000000E+000
                    77  0.000000000000000E+000
                    78  1.060867907609317E-005
                    79 -4.178645673177464E-006
                    80  4.275148043473698E-004
                    81  0.000000000000000E+000
                    82  0.000000000000000E+000
                    83  6.668590601631482E-004
                    84  2.623330411948666E-004
                    85  0.000000000000000E+000
                    86 -2.957810894343545E-005
                    87  5.848465723281705E-005
                    88  0.000000000000000E+000
                    89  0.000000000000000E+000
                    90 -4.749218238222996E-005
                    91 -1.478375422801884E-004
                    92 -1.565250738345032E-002
                    93  2.144554694008182E-003
                    94  2.997867376472459E-004
                    95 -3.183058797330938E-003
                    96 -2.563294923738852E-004
                    97 -2.728106515988916E-004
                    98  0.000000000000000E+000
                    99  9.403537781629126E-004
                   100  9.264210624747524E-007
                   101  0.000000000000000E+000
                   102 -1.693821109887184E-003
                   103  2.956805840581722E-005
                   104  0.000000000000000E+000
                   105 -2.323025861703280E-005
                   106  0.000000000000000E+000
                   107  0.000000000000000E+000
                   108  1.085334039455417E-005
                   109 -2.703554272960260E-006
                   110  4.184001476820434E-004
                   111  0.000000000000000E+000
                   112  0.000000000000000E+000
                   113  3.923441250687290E-004
                   114 -2.400784094638586E-004
                   115  0.000000000000000E+000
                   116  3.169458201888219E-005
                   117  7.361430717307988E-005
                   118  0.000000000000000E+000
                   119  0.000000000000000E+000
                   120  2.134450131630449E-006
                   121 -1.345842005183493E-004
                   122  5.906614537844982E-005
                   123  6.407166202153992E-004
                   124 -2.296614949199651E-004
                   125  1.343912128566534E-004
                   126 -2.749321046367516E-006
                   127  4.330187017438470E-004
                   128  0.000000000000000E+000
                   129  7.861575486619904E-005
                   130 -6.256219917045368E-004
                   131  0.000000000000000E+000
                   132 -3.701566068976283E-004
                   133 -9.305450903787039E-004
                   134  0.000000000000000E+000
                   135 -1.836222964492453E-005
                   136  0.000000000000000E+000
                   137  0.000000000000000E+000
                   138 -2.190545911866216E-006
                   139 -4.462407759993070E-005
                   140 -1.287767042771945E-004
                   141  0.000000000000000E+000
                   142  0.000000000000000E+000
                   143 -2.585064713528268E-004
                   144  1.041329394786652E-004
                   145  0.000000000000000E+000
                   146 -9.115144262986292E-006
                   147  3.639514792287271E-005
                   148  0.000000000000000E+000
                   149  0.000000000000000E+000
                   150  4.328816869873410E-005
                   151 -3.782813754277959E-005
                   152 -1.637579624493007E-004
                   153  5.993216312531082E-004
                   154 -2.288429238961312E-004
                   155  4.809907218869849E-005
                   156  4.352082224066252E-005
                   157  4.828545941674631E-004
                   158  0.000000000000000E+000
                   159 -1.342715981333011E-004
                   160 -5.508940846157655E-004