[Molden Format]
[Atoms] AU
  N     1    7     0.0000000000    0.0000000000   -4.3896059400        
  C     2    6     0.0000000000    0.0000000000   -1.7787405200        
  C     3    6     0.0000000000   -2.3347474200   -0.3922060100        
  C     4    6     0.0000000000    2.3347474200   -0.3922060100        
  C     5    6     0.0000000000   -2.3242454000    2.1775818300        
  C     6    6     0.0000000000    2.3242454000    2.1775818300        
  C     7    6     0.0000000000    0.0000000000    3.4748475600        
  H     8    1    -1.6486042200    0.0000000000   -5.3790611100        
  H     9    1     1.6486042200    0.0000000000   -5.3790611200        
  H    10    1     0.0000000000   -4.0457988600   -1.4652898000        
  H    11    1     0.0000000000    4.0457988600   -1.4652898000        
  H    12    1     0.0000000000   -4.0519040200    3.2320081000        
  H    13    1     0.0000000000    4.0519040200    3.2320081000        
  H    14    1     0.0000000000    0.0000000000    5.5038241200        
[5D]
[7F]
[GTO]
  1  0
   s    12 1.00
  0.114200D+05  0.172695D-04
  0.171200D+04  0.134411D-03
  0.389300D+03  0.694561D-03
  0.110000D+03  0.278531D-02
  0.355700D+02  0.863457D-02
  0.125400D+02  0.199805D-01
  0.464400D+01  0.262908D-01
  0.129300D+01 -0.243845D-01
  0.511800D+00 -0.924934D-01
  0.178700D+00 -0.339683D+00
  0.246240D-01  0.345111D+00
  0.112530D-01  0.752750D+00
   s    10 1.00
  0.114200D+05  0.523000D-03
  0.171200D+04  0.404500D-02
  0.389300D+03  0.207750D-01
  0.110000D+03  0.807269D-01
  0.355700D+02  0.233074D+00
  0.125400D+02  0.433501D+00
  0.464400D+01  0.347472D+00
  0.129300D+01  0.412620D-01
  0.511800D+00 -0.850799D-02
  0.178700D+00  0.238400D-02
   s    10 1.00
  0.114200D+05 -0.115000D-03
  0.171200D+04 -0.895000D-03
  0.389300D+03 -0.462400D-02
  0.110000D+03 -0.185280D-01
  0.355700D+02 -0.573390D-01
  0.125400D+02 -0.132076D+00
  0.464400D+01 -0.172510D+00
  0.129300D+01  0.151814D+00
  0.511800D+00  0.599944D+00
  0.178700D+00  0.387462D+00
   s     1 1.00
  0.129300D+01  0.100000D+01
   s     1 1.00
  0.178700D+00  0.100000D+01
   p     5 1.00
  0.266300D+02  0.146700D-01
  0.594800D+01  0.917640D-01
  0.174200D+01  0.298683D+00
  0.555000D+00  0.498487D+00
  0.172500D+00  0.337023D+00
   p     1 1.00
  0.174200D+01  0.100000D+01
   p     1 1.00
  0.555000D+00  0.100000D+01
   d     1 1.00
  0.165400D+01  0.100000D+01
   d     1 1.00
  0.469000D+00  0.100000D+01
   f     1 1.00
  0.109300D+01  0.100000D+01
  
  2  0
   s    10 1.00
  0.823600D+04  0.531000D-03
  0.123500D+04  0.410800D-02
  0.280800D+03  0.210870D-01
  0.792700D+02  0.818530D-01
  0.255900D+02  0.234817D+00
  0.899700D+01  0.434401D+00
  0.331900D+01  0.346129D+00
  0.905900D+00  0.393780D-01
  0.364300D+00 -0.898300D-02
  0.128500D+00  0.238500D-02
   s    10 1.00
  0.823600D+04 -0.113000D-03
  0.123500D+04 -0.878000D-03
  0.280800D+03 -0.454000D-02
  0.792700D+02 -0.181330D-01
  0.255900D+02 -0.557600D-01
  0.899700D+01 -0.126895D+00
  0.331900D+01 -0.170352D+00
  0.905900D+00  0.140382D+00
  0.364300D+00  0.598684D+00
  0.128500D+00  0.395389D+00
   s     1 1.00
  0.905900D+00  0.100000D+01
   s     1 1.00
  0.364300D+00  0.100000D+01
   p     5 1.00
  0.187100D+02  0.140310D-01
  0.413300D+01  0.868660D-01
  0.120000D+01  0.290216D+00
  0.382700D+00  0.501008D+00
  0.120900D+00  0.343406D+00
   p     1 1.00
  0.382700D+00  0.100000D+01
   p     1 1.00
  0.120900D+00  0.100000D+01
   d     1 1.00
  0.109700D+01  0.100000D+01
   d     1 1.00
  0.318000D+00  0.100000D+01
   f     1 1.00
  0.761000D+00  0.100000D+01
  
  3  0
   s    10 1.00
  0.823600D+04  0.531000D-03
  0.123500D+04  0.410800D-02
  0.280800D+03  0.210870D-01
  0.792700D+02  0.818530D-01
  0.255900D+02  0.234817D+00
  0.899700D+01  0.434401D+00
  0.331900D+01  0.346129D+00
  0.905900D+00  0.393780D-01
  0.364300D+00 -0.898300D-02
  0.128500D+00  0.238500D-02
   s    10 1.00
  0.823600D+04 -0.113000D-03
  0.123500D+04 -0.878000D-03
  0.280800D+03 -0.454000D-02
  0.792700D+02 -0.181330D-01
  0.255900D+02 -0.557600D-01
  0.899700D+01 -0.126895D+00
  0.331900D+01 -0.170352D+00
  0.905900D+00  0.140382D+00
  0.364300D+00  0.598684D+00
  0.128500D+00  0.395389D+00
   s     1 1.00
  0.905900D+00  0.100000D+01
   s     1 1.00
  0.364300D+00  0.100000D+01
   p     5 1.00
  0.187100D+02  0.140310D-01
  0.413300D+01  0.868660D-01
  0.120000D+01  0.290216D+00
  0.382700D+00  0.501008D+00
  0.120900D+00  0.343406D+00
   p     1 1.00
  0.382700D+00  0.100000D+01
   p     1 1.00
  0.120900D+00  0.100000D+01
   d     1 1.00
  0.109700D+01  0.100000D+01
   d     1 1.00
  0.318000D+00  0.100000D+01
   f     1 1.00
  0.761000D+00  0.100000D+01
  
  4  0
   s    10 1.00
  0.823600D+04  0.531000D-03
  0.123500D+04  0.410800D-02
  0.280800D+03  0.210870D-01
  0.792700D+02  0.818530D-01
  0.255900D+02  0.234817D+00
  0.899700D+01  0.434401D+00
  0.331900D+01  0.346129D+00
  0.905900D+00  0.393780D-01
  0.364300D+00 -0.898300D-02
  0.128500D+00  0.238500D-02
   s    10 1.00
  0.823600D+04 -0.113000D-03
  0.123500D+04 -0.878000D-03
  0.280800D+03 -0.454000D-02
  0.792700D+02 -0.181330D-01
  0.255900D+02 -0.557600D-01
  0.899700D+01 -0.126895D+00
  0.331900D+01 -0.170352D+00
  0.905900D+00  0.140382D+00
  0.364300D+00  0.598684D+00
  0.128500D+00  0.395389D+00
   s     1 1.00
  0.905900D+00  0.100000D+01
   s     1 1.00
  0.364300D+00  0.100000D+01
   p     5 1.00
  0.187100D+02  0.140310D-01
  0.413300D+01  0.868660D-01
  0.120000D+01  0.290216D+00
  0.382700D+00  0.501008D+00
  0.120900D+00  0.343406D+00
   p     1 1.00
  0.382700D+00  0.100000D+01
   p     1 1.00
  0.120900D+00  0.100000D+01
   d     1 1.00
  0.109700D+01  0.100000D+01
   d     1 1.00
  0.318000D+00  0.100000D+01
   f     1 1.00
  0.761000D+00  0.100000D+01
  
  5  0
   s    10 1.00
  0.823600D+04  0.531000D-03
  0.123500D+04  0.410800D-02
  0.280800D+03  0.210870D-01
  0.792700D+02  0.818530D-01
  0.255900D+02  0.234817D+00
  0.899700D+01  0.434401D+00
  0.331900D+01  0.346129D+00
  0.905900D+00  0.393780D-01
  0.364300D+00 -0.898300D-02
  0.128500D+00  0.238500D-02
   s    10 1.00
  0.823600D+04 -0.113000D-03
  0.123500D+04 -0.878000D-03
  0.280800D+03 -0.454000D-02
  0.792700D+02 -0.181330D-01
  0.255900D+02 -0.557600D-01
  0.899700D+01 -0.126895D+00
  0.331900D+01 -0.170352D+00
  0.905900D+00  0.140382D+00
  0.364300D+00  0.598684D+00
  0.128500D+00  0.395389D+00
   s     1 1.00
  0.905900D+00  0.100000D+01
   s     1 1.00
  0.364300D+00  0.100000D+01
   p     5 1.00
  0.187100D+02  0.140310D-01
  0.413300D+01  0.868660D-01
  0.120000D+01  0.290216D+00
  0.382700D+00  0.501008D+00
  0.120900D+00  0.343406D+00
   p     1 1.00
  0.382700D+00  0.100000D+01
   p     1 1.00
  0.120900D+00  0.100000D+01
   d     1 1.00
  0.109700D+01  0.100000D+01
   d     1 1.00
  0.318000D+00  0.100000D+01
   f     1 1.00
  0.761000D+00  0.100000D+01
  
  6  0
   s    10 1.00
  0.823600D+04  0.531000D-03
  0.123500D+04  0.410800D-02
  0.280800D+03  0.210870D-01
  0.792700D+02  0.818530D-01
  0.255900D+02  0.234817D+00
  0.899700D+01  0.434401D+00
  0.331900D+01  0.346129D+00
  0.905900D+00  0.393780D-01
  0.364300D+00 -0.898300D-02
  0.128500D+00  0.238500D-02
   s    10 1.00
  0.823600D+04 -0.113000D-03
  0.123500D+04 -0.878000D-03
  0.280800D+03 -0.454000D-02
  0.792700D+02 -0.181330D-01
  0.255900D+02 -0.557600D-01
  0.899700D+01 -0.126895D+00
  0.331900D+01 -0.170352D+00
  0.905900D+00  0.140382D+00
  0.364300D+00  0.598684D+00
  0.128500D+00  0.395389D+00
   s     1 1.00
  0.905900D+00  0.100000D+01
   s     1 1.00
  0.364300D+00  0.100000D+01
   p     5 1.00
  0.187100D+02  0.140310D-01
  0.413300D+01  0.868660D-01
  0.120000D+01  0.290216D+00
  0.382700D+00  0.501008D+00
  0.120900D+00  0.343406D+00
   p     1 1.00
  0.382700D+00  0.100000D+01
   p     1 1.00
  0.120900D+00  0.100000D+01
   d     1 1.00
  0.109700D+01  0.100000D+01
   d     1 1.00
  0.318000D+00  0.100000D+01
   f     1 1.00
  0.761000D+00  0.100000D+01
  
  7  0
   s    10 1.00
  0.823600D+04  0.531000D-03
  0.123500D+04  0.410800D-02
  0.280800D+03  0.210870D-01
  0.792700D+02  0.818530D-01
  0.255900D+02  0.234817D+00
  0.899700D+01  0.434401D+00
  0.331900D+01  0.346129D+00
  0.905900D+00  0.393780D-01
  0.364300D+00 -0.898300D-02
  0.128500D+00  0.238500D-02
   s    10 1.00
  0.823600D+04 -0.113000D-03
  0.123500D+04 -0.878000D-03
  0.280800D+03 -0.454000D-02
  0.792700D+02 -0.181330D-01
  0.255900D+02 -0.557600D-01
  0.899700D+01 -0.126895D+00
  0.331900D+01 -0.170352D+00
  0.905900D+00  0.140382D+00
  0.364300D+00  0.598684D+00
  0.128500D+00  0.395389D+00
   s     1 1.00
  0.905900D+00  0.100000D+01
   s     1 1.00
  0.364300D+00  0.100000D+01
   p     5 1.00
  0.187100D+02  0.140310D-01
  0.413300D+01  0.868660D-01
  0.120000D+01  0.290216D+00
  0.382700D+00  0.501008D+00
  0.120900D+00  0.343406D+00
   p     1 1.00
  0.382700D+00  0.100000D+01
   p     1 1.00
  0.120900D+00  0.100000D+01
   d     1 1.00
  0.109700D+01  0.100000D+01
   d     1 1.00
  0.318000D+00  0.100000D+01
   f     1 1.00
  0.761000D+00  0.100000D+01
  
  8  0
   s     4 1.00
  0.130100D+02  0.196850D-01
  0.196200D+01  0.137977D+00
  0.444600D+00  0.478148D+00
  0.122000D+00  0.501240D+00
   s     1 1.00
  0.122000D+00  0.100000D+01
   p     1 1.00
  0.727000D+00  0.100000D+01
  
  9  0
   s     4 1.00
  0.130100D+02  0.196850D-01
  0.196200D+01  0.137977D+00
  0.444600D+00  0.478148D+00
  0.122000D+00  0.501240D+00
   s     1 1.00
  0.122000D+00  0.100000D+01
   p     1 1.00
  0.727000D+00  0.100000D+01
  
 10  0
   s     4 1.00
  0.130100D+02  0.196850D-01
  0.196200D+01  0.137977D+00
  0.444600D+00  0.478148D+00
  0.122000D+00  0.501240D+00
   s     1 1.00
  0.122000D+00  0.100000D+01
   p     1 1.00
  0.727000D+00  0.100000D+01
  
 11  0
   s     4 1.00
  0.130100D+02  0.196850D-01
  0.196200D+01  0.137977D+00
  0.444600D+00  0.478148D+00
  0.122000D+00  0.501240D+00
   s     1 1.00
  0.122000D+00  0.100000D+01
   p     1 1.00
  0.727000D+00  0.100000D+01
  
 12  0
   s     4 1.00
  0.130100D+02  0.196850D-01
  0.196200D+01  0.137977D+00
  0.444600D+00  0.478148D+00
  0.122000D+00  0.501240D+00
   s     1 1.00
  0.122000D+00  0.100000D+01
   p     1 1.00
  0.727000D+00  0.100000D+01
  
 13  0
   s     4 1.00
  0.130100D+02  0.196850D-01
  0.196200D+01  0.137977D+00
  0.444600D+00  0.478148D+00
  0.122000D+00  0.501240D+00
   s     1 1.00
  0.122000D+00  0.100000D+01
   p     1 1.00
  0.727000D+00  0.100000D+01
  
 14  0
   s     4 1.00
  0.130100D+02  0.196850D-01
  0.196200D+01  0.137977D+00
  0.444600D+00  0.478148D+00
  0.122000D+00  0.501240D+00
   s     1 1.00
  0.122000D+00  0.100000D+01
   p     1 1.00
  0.727000D+00  0.100000D+01
  
[MO]
 Sym= __1_A__
 Ene=   1.00000000000000     
 Spin= Alpha
 Occup=    1.00000000000000     
                     1  1.267950755570538E-004
                     2  0.997335724114505     
                     3  1.782438450060135E-002
                     4  2.259732915320947E-003
                     5  9.152764623127061E-005
                     6  1.952548290457394E-009
                     7 -2.337460436895092E-008
                     8  3.173029612135569E-003
                     9 -2.792972831024601E-010
                    10  1.954054505258181E-008
                    11 -4.328007731868443E-004
                    12 -5.175838417530125E-009
                    13 -5.098573322146283E-008
                    14 -5.395871087979734E-004
                    15  1.625634565961027E-004
                    16  1.751835030066325E-010
                    17  1.077731975082863E-009
                    18  1.519004824825535E-004
                    19 -1.667922320074823E-012
                    20  1.775049969783431E-004
                    21  1.239593110386426E-009
                    22 -4.027003922203480E-008
                    23 -6.293822471902548E-004
                    24  1.413526945524052E-011
                    25 -2.416864959268222E-004
                    26 -1.012148351292595E-009
                    27 -1.062975629526735E-008
                    28 -9.492517876242065E-005
                    29  4.918205889052496E-012
                    30  2.792569169437914E-010
                    31 -4.277215499379036E-010
                    32 -2.761618949236578E-004
                    33  3.628118734449636E-003
                    34  1.804054687997755E-004
                    35 -7.790901222213706E-004
                    36 -4.184416493740527E-009
                    37  3.255102371639217E-008
                    38 -8.178162601884482E-003
                    39  4.647230980597949E-009
                    40 -1.196671269276177E-007
                    41  1.956161033871127E-004
                    42  6.233527893413154E-009
                    43 -7.744276572032648E-008
                    44  4.011785741042859E-003
                    45  4.213177039016934E-004
                    46 -2.061156138815244E-010
                    47  1.279388461834501E-008
                    48  1.010234029626936E-004
                    49  4.569386721830304E-012
                    50  7.323577663037583E-004
                    51  1.579951886486159E-009
                    52 -2.356487970217942E-007
                    53  1.200221537023839E-004
                    54 -1.161754608466422E-010
                    55 -7.018516028038209E-005
                    56  5.399939357078360E-010
                    57  5.137128475208799E-009
                    58  6.488041109954582E-006
                    59 -2.410722217776451E-011
                    60  5.200557328118997E-010
                    61  7.272713956226752E-010
                    62 -2.248810441002372E-004
                    63 -2.027550499215422E-003
                    64  2.146182409952340E-005
                    65  8.747069496991086E-004
                    66 -1.083571655010107E-009
                    67 -1.027893961224156E-003
                    68  1.461979690720827E-003
                    69  1.000280280193668E-009
                    70  7.073500250104411E-005
                    71  1.082738688361304E-004
                    72 -2.961263336399984E-009
                    73 -7.102747777569870E-004
                    74 -3.306421222060322E-004
                    75  1.067372055277314E-004
                    76 -8.040424411925500E-011
                    77 -8.014110960536119E-006
                    78  4.384963183785484E-005
                    79  2.496518325810270E-010
                    80  5.591428406538310E-005
                    81  1.320891318842236E-009
                    82 -1.360344028827414E-005
                    83  5.221691109052020E-005
                    84 -2.229752888878957E-009
                    85 -6.572894046368889E-005
                    86  2.276756377082123E-010
                    87  8.353578005238044E-006
                    88  1.737633667253843E-005
                    89  2.704973108444528E-010
                    90 -3.843280619521935E-010
                    91  3.449391433921799E-005
                    92 -2.248394635053120E-004
                    93 -2.027375896071831E-003
                    94  2.171107254374172E-005
                    95  8.738654691746691E-004
                    96 -1.103782352838408E-009
                    97  1.027937973398796E-003
                    98  1.462152747986254E-003
                    99  1.051738497188023E-009
                   100 -7.099566325051421E-005
                   101  1.072262683110572E-004
                   102 -2.893675768227360E-009
                   103  7.094209440996671E-004
                   104 -3.306466398163988E-004
                   105  1.066848513106880E-004
                   106 -7.369165850197709E-011
                   107  8.036146082986489E-006
                   108  4.385356881830766E-005
                   109 -2.246504577901073E-010
                   110  5.524345769627337E-005
                   111  1.226662613474778E-009
                   112  1.348277046772906E-005
                   113  5.206021784007892E-005
                   114  2.036747193457426E-009
                   115 -6.563251983160732E-005
                   116  2.260251586393835E-010
                   117 -8.371466945737383E-006
                   118  1.737540080829484E-005
                   119 -2.462860185236026E-010
                   120 -3.703167195952128E-010
                   121 -3.449313200208838E-005
                   122 -1.806075800657117E-004
                   123  2.449649866078789E-005
                   124  7.837420730039632E-005
                   125  3.115716534420495E-004
                   126 -1.574712960473653E-010
                   127  7.959821832835756E-005
                   128 -9.659271898664474E-004
                   129 -4.183750013424354E-010
                   130  4.646070553769328E-006
                   131  1.765330015053240E-004
                   132  1.194299806597718E-009
                   133  6.264315561236680E-005
                   134  5.932982290761836E-004
                   135  6.581067635246504E-006
                   136  2.371783634210963E-011
                   137  1.219839783689031E-005
                   138 -2.179832761911166E-007
                   139 -7.715847025497021E-011
                   140 -1.325561816484878E-004
                   141  7.104235616296585E-010
                   142  7.263675674369008E-005
                   143  2.966356814128630E-005
                   144  6.559800007507195E-010
                   145 -2.169561981139138E-005
                   146 -2.387219315182736E-010
                   147 -1.106337905067403E-005
                   148 -7.398802033894680E-006
                   149 -5.902943891349196E-011
                   150  6.278779072146128E-011
                   151 -2.991531270925467E-006
                   152 -1.812826601921219E-004
                   153  2.211044315034604E-005
                   154  7.774548103213570E-005
                   155  3.156403067803230E-004
                   156 -1.538672813667987E-010
                   157 -7.959361459028041E-005
                   158 -9.658369279383493E-004
                   159 -4.200779349195616E-010
                   160 -4.841766463249449E-006
                   161  1.757889279253531E-004
                   162  1.178765834795440E-009
                   163 -6.178388436979844E-005
                   164  5.932559525580601E-004
                   165  6.660808507979098E-006
                   166  2.327981586945250E-011
                   167 -1.219737948798042E-005
                   168 -2.783057269490024E-007
                   169  7.046793832428502E-011
                   170 -1.322604924251736E-004
                   171  6.583896443562389E-010
                   172 -7.286575027159970E-005
                   173  2.966700799161238E-005
                   174 -5.769463090117756E-010
                   175 -2.157138802713431E-005
                   176 -2.320369406564517E-010
                   177  1.109090342707378E-005
                   178 -7.457579635288238E-006
                   179  5.885052699707582E-011
                   180  5.528322982355543E-011
                   181  2.992844565133920E-006
                   182 -1.579077902633111E-004
                   183 -4.200783003757418E-004
                   184  2.102667783636774E-005
                   185  3.227866087743885E-004
                   186 -2.676005794274574E-011
                   187  6.487698243400832E-008
                   188 -7.029075565958338E-005
                   189 -5.124423149395264E-010
                   190 -3.526654209984868E-007
                   191  2.962608687966408E-005
                   192 -9.613426949827771E-010
                   193  1.327390817865241E-007
                   194 -1.388442929310218E-004
                   195  1.947281767316463E-005
                   196  2.386260630304028E-011
                   197  2.369240257051985E-008
                   198  7.327865251415794E-006
                   199 -2.744699762283120E-012
                   200  2.823987157909479E-005
                   201  1.730892221800023E-010
                   202  1.712078167629191E-007
                   203 -6.091437370090672E-006
                   204  4.237874948924874E-011
                   205 -1.500201946704677E-005
                   206 -1.177090967470999E-011
                   207 -1.074586025500095E-008
                   208  5.882085237507554E-006
                   209 -6.294813502843446E-012
                   210 -6.979570110177691E-011
                   211  2.459463473599737E-008
                   212  8.429662942245952E-003
                   213 -4.386068451084656E-003
                   214  8.083291613255203E-004
                   215 -2.673646333663721E-009
                   216  5.303632713137528E-004
                   217  8.429669049395287E-003
                   218 -4.386074927560486E-003
                   219 -8.083327010898690E-004
                   220 -2.680852360496729E-009
                   221  5.303640299464519E-004
                   222 -7.660047980084148E-004
                   223 -2.023027115178281E-004
                   224 -2.115454161303636E-010
                   225 -4.340434055404668E-005
                   226 -5.391278217142657E-005
                   227 -7.661061786621668E-004
                   228 -2.018269018331171E-004
                   229 -1.860444914692239E-010
                   230  4.337254280467759E-005
                   231 -5.395778494488779E-005
                   232 -3.374294696656668E-004
                   233 -1.876803858612452E-004
                   234  2.422271551065647E-011
                   235 -2.014803142239675E-005
                   236 -2.663706839837834E-006
                   237 -3.375594560070351E-004
                   238 -1.878340683341109E-004
                   239  1.760557163838041E-011
                   240  2.023296318354378E-005
                   241 -2.605234101544803E-006
                   242  9.723060911012551E-005
                   243  3.613939977770995E-005
                   244  4.091157625269375E-011
                   245 -1.803768970132440E-008
                   246  2.239643343960922E-005
 Sym= __2_A__
 Ene=   2.00000000000000     
 Spin= Alpha
 Occup=    1.00000000000000     
                     1  2.257429493769843E-006
                     2 -7.455697018931986E-005
                     3  1.605176321526712E-003
                     4  5.720188535836035E-005
                     5  1.120924810533244E-003
                     6  1.636196152109813E-010
                     7  8.988692835971304E-009
                     8  1.549674867901108E-003
                     9  1.102512203987871E-010
                    10 -4.968336870923788E-009
                    11 -9.273082788083249E-005
                    12 -2.350522812739052E-010
                    13  4.073335122949990E-009
                    14 -7.993629323686743E-006
                    15  4.089923204833104E-005
                    16 -2.237750854418766E-011
                    17  4.588794713683315E-010
                    18  5.525218315279336E-007
                    19  4.755463472194011E-013
                    20 -1.236159374597473E-004
                    21  4.196015268611354E-010
                    22  2.523008077731511E-009
                    23  3.100809603929118E-005
                    24 -7.583942722405390E-013
                    25  1.919770762645404E-004
                    26  2.950458181026292E-010
                    27 -9.950831413861185E-010
                    28 -5.655291040360732E-005
                    29 -5.453430096427108E-013
                    30  6.937175116122069E-011
                    31  4.608720725965452E-010
                    32   1.00110868691930     
                    33  8.562374205789893E-003
                    34  2.444490507590041E-003
                    35 -7.774609020523043E-003
                    36 -6.426936148463556E-010
                    37 -5.854661917222230E-009
                    38 -2.346904420722623E-003
                    39  3.360346261448085E-010
                    40  9.276839118123477E-009
                    41  8.493684118787966E-004
                    42  8.849638589719441E-011
                    43 -6.495783771138264E-008
                    44  3.213455531524366E-003
                    45  2.964519412702100E-004
                    46 -1.948843366559825E-011
                    47 -3.382503815934988E-009
                    48 -3.327147856574470E-004
                    49 -6.448530335243661E-013
                    50  1.661693529963073E-004
                    51  1.995361207879402E-010
                    52  2.309637196077657E-008
                    53  6.279594216249170E-004
                    54  4.042664053862889E-012
                    55  2.877739988658753E-004
                    56 -1.642398128798396E-010
                    57  1.086730949528232E-010
                    58 -1.393035743775631E-004
                    59  3.280689639113984E-012
                    60 -1.431950981176132E-011
                    61  1.490612242397163E-009
                    62  1.070141041012496E-002
                    63 -1.641720530464289E-003
                    64 -2.808664193071970E-004
                    65  2.749638369132996E-003
                    66 -3.584394853840118E-011
                    67  2.727045270057616E-004
                    68 -2.157646027081421E-004
                    69 -7.302300594170910E-011
                    70  5.534673062830550E-004
                    71  1.832329512382404E-004
                    72 -7.171967243768589E-013
                    73 -1.650469461474048E-003
                    74  2.276826604118990E-004
                    75 -2.856425065028918E-005
                    76  4.379933765540951E-012
                    77  2.074916476720091E-006
                    78  1.359488427074357E-005
                    79 -1.141369373470884E-012
                    80  6.620218930639710E-004
                    81 -4.726111364152502E-011
                    82 -3.024741516269310E-004
                    83 -9.277587290040471E-005
                    84 -3.223928464104385E-011
                    85  5.080123807090532E-005
                    86 -5.220924839738349E-012
                    87  7.062608394049028E-006
                    88 -1.146764386343428E-004
                    89  1.212097452741998E-013
                    90  7.623238234080795E-012
                    91  3.784337715890577E-005
                    92  1.070138532225729E-002
                    93 -1.641800848966462E-003
                    94 -2.809204394542323E-004
                    95  2.749864617696059E-003
                    96 -3.540098386796580E-011
                    97 -2.727080981885744E-004
                    98 -2.157958294067658E-004
                    99 -6.082808371605253E-011
                   100 -5.534475489902405E-004
                   101  1.834179754284253E-004
                   102 -1.962659991170547E-011
                   103  1.650627729186145E-003
                   104  2.275294886349096E-004
                   105 -2.854828121554247E-005
                   106  3.425867359964094E-012
                   107 -2.081114732682422E-006
                   108  1.359364830543051E-005
                   109  1.367642212401408E-012
                   110  6.621221366460476E-004
                   111 -4.642904979768487E-011
                   112  3.025230325287411E-004
                   113 -9.275033444157788E-005
                   114  3.932284610341897E-011
                   115  5.078303724212641E-005
                   116 -4.875583122735103E-012
                   117 -7.059772018151979E-006
                   118 -1.146744429284470E-004
                   119 -2.479052638429962E-012
                   120  6.080281627010329E-012
                   121 -3.784267944109719E-005
                   122 -1.635694481443862E-004
                   123 -7.653458535108972E-004
                   124  2.234381328068715E-004
                   125 -1.461763161325970E-004
                   126 -9.445214959210242E-011
                   127 -1.420790993695744E-005
                   128 -1.601953517507107E-004
                   129  3.472628575585871E-011
                   130 -3.837901927054138E-005
                   131  6.001281610264679E-004
                   132  8.618706230229017E-011
                   133  2.306367168011059E-004
                   134  6.496170122090374E-004
                   135 -2.537738483235463E-005
                   136  2.554968712670377E-012
                   137  3.602712564568399E-005
                   138  1.340584681336029E-005
                   139 -6.886084079762938E-012
                   140 -2.683364432144538E-004
                   141 -2.676908147325842E-011
                   142 -1.421021948266068E-004
                   143 -9.239318702057326E-006
                   144  3.826669939953839E-011
                   145 -5.151671687208018E-006
                   146  8.158132273409040E-012
                   147 -2.779695811516774E-005
                   148 -4.363938158287182E-005
                   149  4.538158419482332E-012
                   150  2.358168394862374E-012
                   151 -3.153598067922080E-006
                   152 -1.632881624555092E-004
                   153 -7.644121536606768E-004
                   154  2.235462538466234E-004
                   155 -1.473120116736587E-004
                   156 -7.850935762357431E-011
                   157  1.419458800936622E-005
                   158 -1.602036780860707E-004
                   159  2.347920616368817E-011
                   160  3.845023978167352E-005