[Molden Format]
[Atoms] AU
  N     1    7    -4.5082829200   -0.1342819900   -0.4228200100        
  C     2    6    -1.7496705200   -0.0824342700   -0.1838819400        
  C     3    6    -0.3491890900    0.2202010900   -2.3813599000        
  C     4    6    -0.4819141000   -0.3194027500    2.1144844200        
  C     5    6     2.2679837200    0.2851297300   -2.2867536700        
  C     6    6     2.1285900100   -0.2535069600    2.1993448600        
  C     7    6     3.5096699900    0.0491470500   -0.0030301700        
  H     8    1    -5.1320741200   -2.0132111100    0.6830024400        
  H     9    1    -5.1710165100    1.2661961700    0.9629770900        
  H    10    1    -1.3260875200    0.4019365300   -4.1451509600        
  H    11    1    -1.5448115400   -0.5543420500    3.8263524900        
  H    12    1     3.3318141500    0.5199799700   -3.9976458500        
  H    13    1     3.0845146800   -0.4378414600    3.9798216900        
  H    14    1     5.5368142800    0.0998677000    0.0666404700        
[5D]
[7F]
[GTO]
  1  0
   s    12 1.00
  0.114200D+05  0.172695D-04
  0.171200D+04  0.134411D-03
  0.389300D+03  0.694561D-03
  0.110000D+03  0.278531D-02
  0.355700D+02  0.863457D-02
  0.125400D+02  0.199805D-01
  0.464400D+01  0.262908D-01
  0.129300D+01 -0.243845D-01
  0.511800D+00 -0.924934D-01
  0.178700D+00 -0.339683D+00
  0.246240D-01  0.345111D+00
  0.112530D-01  0.752750D+00
   s    10 1.00
  0.114200D+05  0.523000D-03
  0.171200D+04  0.404500D-02
  0.389300D+03  0.207750D-01
  0.110000D+03  0.807269D-01
  0.355700D+02  0.233074D+00
  0.125400D+02  0.433501D+00
  0.464400D+01  0.347472D+00
  0.129300D+01  0.412620D-01
  0.511800D+00 -0.850799D-02
  0.178700D+00  0.238400D-02
   s    10 1.00
  0.114200D+05 -0.115000D-03
  0.171200D+04 -0.895000D-03
  0.389300D+03 -0.462400D-02
  0.110000D+03 -0.185280D-01
  0.355700D+02 -0.573390D-01
  0.125400D+02 -0.132076D+00
  0.464400D+01 -0.172510D+00
  0.129300D+01  0.151814D+00
  0.511800D+00  0.599944D+00
  0.178700D+00  0.387462D+00
   s     1 1.00
  0.129300D+01  0.100000D+01
   s     1 1.00
  0.178700D+00  0.100000D+01
   p     5 1.00
  0.266300D+02  0.146700D-01
  0.594800D+01  0.917640D-01
  0.174200D+01  0.298683D+00
  0.555000D+00  0.498487D+00
  0.172500D+00  0.337023D+00
   p     1 1.00
  0.174200D+01  0.100000D+01
   p     1 1.00
  0.555000D+00  0.100000D+01
   d     1 1.00
  0.165400D+01  0.100000D+01
   d     1 1.00
  0.469000D+00  0.100000D+01
   f     1 1.00
  0.109300D+01  0.100000D+01
  
  2  0
   s    10 1.00
  0.823600D+04  0.531000D-03
  0.123500D+04  0.410800D-02
  0.280800D+03  0.210870D-01
  0.792700D+02  0.818530D-01
  0.255900D+02  0.234817D+00
  0.899700D+01  0.434401D+00
  0.331900D+01  0.346129D+00
  0.905900D+00  0.393780D-01
  0.364300D+00 -0.898300D-02
  0.128500D+00  0.238500D-02
   s    10 1.00
  0.823600D+04 -0.113000D-03
  0.123500D+04 -0.878000D-03
  0.280800D+03 -0.454000D-02
  0.792700D+02 -0.181330D-01
  0.255900D+02 -0.557600D-01
  0.899700D+01 -0.126895D+00
  0.331900D+01 -0.170352D+00
  0.905900D+00  0.140382D+00
  0.364300D+00  0.598684D+00
  0.128500D+00  0.395389D+00
   s     1 1.00
  0.905900D+00  0.100000D+01
   s     1 1.00
  0.364300D+00  0.100000D+01
   p     5 1.00
  0.187100D+02  0.140310D-01
  0.413300D+01  0.868660D-01
  0.120000D+01  0.290216D+00
  0.382700D+00  0.501008D+00
  0.120900D+00  0.343406D+00
   p     1 1.00
  0.382700D+00  0.100000D+01
   p     1 1.00
  0.120900D+00  0.100000D+01
   d     1 1.00
  0.109700D+01  0.100000D+01
   d     1 1.00
  0.318000D+00  0.100000D+01
   f     1 1.00
  0.761000D+00  0.100000D+01
  
  3  0
   s    10 1.00
  0.823600D+04  0.531000D-03
  0.123500D+04  0.410800D-02
  0.280800D+03  0.210870D-01
  0.792700D+02  0.818530D-01
  0.255900D+02  0.234817D+00
  0.899700D+01  0.434401D+00
  0.331900D+01  0.346129D+00
  0.905900D+00  0.393780D-01
  0.364300D+00 -0.898300D-02
  0.128500D+00  0.238500D-02
   s    10 1.00
  0.823600D+04 -0.113000D-03
  0.123500D+04 -0.878000D-03
  0.280800D+03 -0.454000D-02
  0.792700D+02 -0.181330D-01
  0.255900D+02 -0.557600D-01
  0.899700D+01 -0.126895D+00
  0.331900D+01 -0.170352D+00
  0.905900D+00  0.140382D+00
  0.364300D+00  0.598684D+00
  0.128500D+00  0.395389D+00
   s     1 1.00
  0.905900D+00  0.100000D+01
   s     1 1.00
  0.364300D+00  0.100000D+01
   p     5 1.00
  0.187100D+02  0.140310D-01
  0.413300D+01  0.868660D-01
  0.120000D+01  0.290216D+00
  0.382700D+00  0.501008D+00
  0.120900D+00  0.343406D+00
   p     1 1.00
  0.382700D+00  0.100000D+01
   p     1 1.00
  0.120900D+00  0.100000D+01
   d     1 1.00
  0.109700D+01  0.100000D+01
   d     1 1.00
  0.318000D+00  0.100000D+01
   f     1 1.00
  0.761000D+00  0.100000D+01
  
  4  0
   s    10 1.00
  0.823600D+04  0.531000D-03
  0.123500D+04  0.410800D-02
  0.280800D+03  0.210870D-01
  0.792700D+02  0.818530D-01
  0.255900D+02  0.234817D+00
  0.899700D+01  0.434401D+00
  0.331900D+01  0.346129D+00
  0.905900D+00  0.393780D-01
  0.364300D+00 -0.898300D-02
  0.128500D+00  0.238500D-02
   s    10 1.00
  0.823600D+04 -0.113000D-03
  0.123500D+04 -0.878000D-03
  0.280800D+03 -0.454000D-02
  0.792700D+02 -0.181330D-01
  0.255900D+02 -0.557600D-01
  0.899700D+01 -0.126895D+00
  0.331900D+01 -0.170352D+00
  0.905900D+00  0.140382D+00
  0.364300D+00  0.598684D+00
  0.128500D+00  0.395389D+00
   s     1 1.00
  0.905900D+00  0.100000D+01
   s     1 1.00
  0.364300D+00  0.100000D+01
   p     5 1.00
  0.187100D+02  0.140310D-01
  0.413300D+01  0.868660D-01
  0.120000D+01  0.290216D+00
  0.382700D+00  0.501008D+00
  0.120900D+00  0.343406D+00
   p     1 1.00
  0.382700D+00  0.100000D+01
   p     1 1.00
  0.120900D+00  0.100000D+01
   d     1 1.00
  0.109700D+01  0.100000D+01
   d     1 1.00
  0.318000D+00  0.100000D+01
   f     1 1.00
  0.761000D+00  0.100000D+01
  
  5  0
   s    10 1.00
  0.823600D+04  0.531000D-03
  0.123500D+04  0.410800D-02
  0.280800D+03  0.210870D-01
  0.792700D+02  0.818530D-01
  0.255900D+02  0.234817D+00
  0.899700D+01  0.434401D+00
  0.331900D+01  0.346129D+00
  0.905900D+00  0.393780D-01
  0.364300D+00 -0.898300D-02
  0.128500D+00  0.238500D-02
   s    10 1.00
  0.823600D+04 -0.113000D-03
  0.123500D+04 -0.878000D-03
  0.280800D+03 -0.454000D-02
  0.792700D+02 -0.181330D-01
  0.255900D+02 -0.557600D-01
  0.899700D+01 -0.126895D+00
  0.331900D+01 -0.170352D+00
  0.905900D+00  0.140382D+00
  0.364300D+00  0.598684D+00
  0.128500D+00  0.395389D+00
   s     1 1.00
  0.905900D+00  0.100000D+01
   s     1 1.00
  0.364300D+00  0.100000D+01
   p     5 1.00
  0.187100D+02  0.140310D-01
  0.413300D+01  0.868660D-01
  0.120000D+01  0.290216D+00
  0.382700D+00  0.501008D+00
  0.120900D+00  0.343406D+00
   p     1 1.00
  0.382700D+00  0.100000D+01
   p     1 1.00
  0.120900D+00  0.100000D+01
   d     1 1.00
  0.109700D+01  0.100000D+01
   d     1 1.00
  0.318000D+00  0.100000D+01
   f     1 1.00
  0.761000D+00  0.100000D+01
  
  6  0
   s    10 1.00
  0.823600D+04  0.531000D-03
  0.123500D+04  0.410800D-02
  0.280800D+03  0.210870D-01
  0.792700D+02  0.818530D-01
  0.255900D+02  0.234817D+00
  0.899700D+01  0.434401D+00
  0.331900D+01  0.346129D+00
  0.905900D+00  0.393780D-01
  0.364300D+00 -0.898300D-02
  0.128500D+00  0.238500D-02
   s    10 1.00
  0.823600D+04 -0.113000D-03
  0.123500D+04 -0.878000D-03
  0.280800D+03 -0.454000D-02
  0.792700D+02 -0.181330D-01
  0.255900D+02 -0.557600D-01
  0.899700D+01 -0.126895D+00
  0.331900D+01 -0.170352D+00
  0.905900D+00  0.140382D+00
  0.364300D+00  0.598684D+00
  0.128500D+00  0.395389D+00
   s     1 1.00
  0.905900D+00  0.100000D+01
   s     1 1.00
  0.364300D+00  0.100000D+01
   p     5 1.00
  0.187100D+02  0.140310D-01
  0.413300D+01  0.868660D-01
  0.120000D+01  0.290216D+00
  0.382700D+00  0.501008D+00
  0.120900D+00  0.343406D+00
   p     1 1.00
  0.382700D+00  0.100000D+01
   p     1 1.00
  0.120900D+00  0.100000D+01
   d     1 1.00
  0.109700D+01  0.100000D+01
   d     1 1.00
  0.318000D+00  0.100000D+01
   f     1 1.00
  0.761000D+00  0.100000D+01
  
  7  0
   s    10 1.00
  0.823600D+04  0.531000D-03
  0.123500D+04  0.410800D-02
  0.280800D+03  0.210870D-01
  0.792700D+02  0.818530D-01
  0.255900D+02  0.234817D+00
  0.899700D+01  0.434401D+00
  0.331900D+01  0.346129D+00
  0.905900D+00  0.393780D-01
  0.364300D+00 -0.898300D-02
  0.128500D+00  0.238500D-02
   s    10 1.00
  0.823600D+04 -0.113000D-03
  0.123500D+04 -0.878000D-03
  0.280800D+03 -0.454000D-02
  0.792700D+02 -0.181330D-01
  0.255900D+02 -0.557600D-01
  0.899700D+01 -0.126895D+00
  0.331900D+01 -0.170352D+00
  0.905900D+00  0.140382D+00
  0.364300D+00  0.598684D+00
  0.128500D+00  0.395389D+00
   s     1 1.00
  0.905900D+00  0.100000D+01
   s     1 1.00
  0.364300D+00  0.100000D+01
   p     5 1.00
  0.187100D+02  0.140310D-01
  0.413300D+01  0.868660D-01
  0.120000D+01  0.290216D+00
  0.382700D+00  0.501008D+00
  0.120900D+00  0.343406D+00
   p     1 1.00
  0.382700D+00  0.100000D+01
   p     1 1.00
  0.120900D+00  0.100000D+01
   d     1 1.00
  0.109700D+01  0.100000D+01
   d     1 1.00
  0.318000D+00  0.100000D+01
   f     1 1.00
  0.761000D+00  0.100000D+01
  
  8  0
   s     4 1.00
  0.130100D+02  0.196850D-01
  0.196200D+01  0.137977D+00
  0.444600D+00  0.478148D+00
  0.122000D+00  0.501240D+00
   s     1 1.00
  0.122000D+00  0.100000D+01
   p     1 1.00
  0.727000D+00  0.100000D+01
  
  9  0
   s     4 1.00
  0.130100D+02  0.196850D-01
  0.196200D+01  0.137977D+00
  0.444600D+00  0.478148D+00
  0.122000D+00  0.501240D+00
   s     1 1.00
  0.122000D+00  0.100000D+01
   p     1 1.00
  0.727000D+00  0.100000D+01
  
 10  0
   s     4 1.00
  0.130100D+02  0.196850D-01
  0.196200D+01  0.137977D+00
  0.444600D+00  0.478148D+00
  0.122000D+00  0.501240D+00
   s     1 1.00
  0.122000D+00  0.100000D+01
   p     1 1.00
  0.727000D+00  0.100000D+01
  
 11  0
   s     4 1.00
  0.130100D+02  0.196850D-01
  0.196200D+01  0.137977D+00
  0.444600D+00  0.478148D+00
  0.122000D+00  0.501240D+00
   s     1 1.00
  0.122000D+00  0.100000D+01
   p     1 1.00
  0.727000D+00  0.100000D+01
  
 12  0
   s     4 1.00
  0.130100D+02  0.196850D-01
  0.196200D+01  0.137977D+00
  0.444600D+00  0.478148D+00
  0.122000D+00  0.501240D+00
   s     1 1.00
  0.122000D+00  0.100000D+01
   p     1 1.00
  0.727000D+00  0.100000D+01
  
 13  0
   s     4 1.00
  0.130100D+02  0.196850D-01
  0.196200D+01  0.137977D+00
  0.444600D+00  0.478148D+00
  0.122000D+00  0.501240D+00
   s     1 1.00
  0.122000D+00  0.100000D+01
   p     1 1.00
  0.727000D+00  0.100000D+01
  
 14  0
   s     4 1.00
  0.130100D+02  0.196850D-01
  0.196200D+01  0.137977D+00
  0.444600D+00  0.478148D+00
  0.122000D+00  0.501240D+00
   s     1 1.00
  0.122000D+00  0.100000D+01
   p     1 1.00
  0.727000D+00  0.100000D+01
  
[MO]
 Sym= __1_a__
 Ene=  0.000000000000000E+000
 Spin= Alpha
 Occup=    2.00000000000000     
                     1 -5.761554780615600E-004
                     2  0.997874071248144     
                     3 -3.486292986047260E-002
                     4  1.706239701339970E-003
                     5  4.241087622189330E-003
                     6  1.316666814572820E-002
                     7 -2.720015850163680E-003
                     8  2.651342033026620E-002
                     9 -1.399307542371170E-003
                    10  1.280984884632020E-004
                    11 -1.894158010431320E-003
                    12 -3.692995760581260E-003
                    13  5.236716576976510E-004
                    14 -5.831454314125570E-003
                    15  1.539440481827357E-004
                    16  7.010873315613090E-005
                    17 -2.524112133623240E-005
                    18  5.436468322202040E-005
                    19  1.456073659054550E-006
                    20  6.695877795832063E-004
                    21  8.054016614138590E-004
                    22 -8.517837271090649E-005
                    23  1.484513601227440E-004
                    24 -9.147249348067469E-005
                    25  3.310648096939923E-005
                    26 -5.284046953327645E-005
                    27  8.943181316423224E-006
                    28  5.177891852704380E-005
                    29  2.137112194089960E-005
                    30  4.575679718045420E-005
                    31 -1.229977651606459E-005
                    32 -4.436205799571250E-004
                    33  5.237748737496090E-004
                    34  2.246839772871820E-004
                    35  1.973587313826200E-004
                    36  1.321895548423080E-003
                    37  1.137106370907710E-004
                    38 -1.126119314065760E-003
                    39 -6.674278388707420E-004
                    40 -7.440328745408100E-005
                    41  4.008162330624960E-004
                    42  2.733591224407040E-003
                    43  2.763631708452070E-004
                    44 -1.344424688322730E-003
                    45  5.964003924316194E-005
                    46 -3.649639770397070E-004
                    47 -1.681891158915530E-005
                    48 -7.371114341779720E-005
                    49  4.159674888371360E-005
                    50  1.056074332774254E-005
                    51 -9.401836133242480E-005
                    52  5.879147531074410E-006
                    53 -3.106633641868680E-005
                    54 -1.261933293388450E-005
                    55  1.154102178876354E-004
                    56 -2.252047408433060E-006
                    57  8.971785641746188E-006
                    58  1.274033765242774E-004
                    59  2.833921925191210E-006
                    60 -6.019960660426338E-005
                    61 -1.107623453951164E-005
                    62 -7.982678216805960E-004
                    63  5.513960358311770E-004
                    64 -1.521313449773470E-004
                    65  2.904804994020400E-003
                    66 -3.976541357624550E-003
                    67 -2.601371730208480E-004
                    68  9.804293159080000E-004
                    69  6.452375008709160E-004
                    70 -3.471011397209580E-005
                    71  5.433059913384740E-004
                    72  1.310261127205440E-003
                    73  3.039082439875580E-004
                    74 -2.376489667357490E-003
                    75  1.318024388633255E-004
                    76 -8.097159466287380E-005
                    77 -3.132148325125090E-005
                    78  1.146415917708118E-005
                    79  1.018683243200690E-005
                    80  1.268391500099933E-004
                    81 -2.850886273877380E-004
                    82 -2.896656843229570E-005
                    83 -3.694939152420780E-005
                    84  3.486242955697680E-005
                    85 -2.862791175803550E-005
                    86 -1.637473417139013E-004
                    87 -1.128083940152300E-005
                    88 -4.767397674504740E-006
                    89  1.943191906894490E-005
                    90 -7.147665021915665E-005
                    91  6.564959810646207E-006
                    92  4.325890059635870E-005
                    93 -9.101857170911990E-004
                    94  2.924415946211930E-004
                    95 -1.151032602758350E-003
                    96 -2.171243075462230E-004
                    97 -2.059271842552400E-004
                    98  1.127450406714470E-003
                    99  4.101339285051810E-005
                   100 -2.257067065839350E-005
                   101  1.944886398899330E-004
                   102 -1.318158966369800E-003
                   103  2.312331469923650E-005
                   104 -6.568927569690790E-004
                   105 -5.028348457791877E-005
                   106 -1.049140509340330E-005
                   107  5.443036595110570E-006
                   108  4.444841440927520E-005
                   109  3.755362748007290E-006
                   110  2.896143473215873E-005
                   111  3.218445994405680E-004
                   112  2.352822864357650E-005
                   113 -1.267465506020226E-004
                   114 -4.120536527070580E-005
                   115 -3.449840657563273E-005
                   116  1.462597668973207E-005
                   117 -6.882857632867212E-006
                   118 -1.922565169955138E-005
                   119 -2.800935960141980E-006
                   120  1.563121701339985E-005
                   121  2.626922844649131E-007
                   122 -2.803157469728300E-004
                   123 -2.043485820375860E-003
                   124  1.567706709503310E-004
                   125  5.454240945841280E-004
                   126  1.993911438616280E-003
                   127  9.167989774894270E-005
                   128 -1.856596879589060E-004
                   129  4.065426444871910E-004
                   130 -2.867266731788280E-005
                   131  3.185307500269000E-004
                   132  7.579737424074960E-004
                   133 -8.068014370182290E-005
                   134  9.819732937539341E-004
                   135  7.397833473394743E-005
                   136 -2.675372422324180E-005
                   137 -7.717293419049870E-006
                   138 -6.938738420467500E-005
                   139 -5.313024787733480E-008
                   140  2.150400585480975E-004
                   141  9.074576775616450E-005
                   142 -6.927249998886520E-006
                   143 -2.986594154871100E-004
                   144 -2.784523100169860E-005
                   145 -8.019595320196686E-006
                   146 -4.079166766699263E-005
                   147 -6.796147887120282E-006
                   148  1.719206099730852E-005
                   149 -3.813401643025730E-006
                   150 -8.490776365722366E-005
                   151  4.404507682844931E-006
                   152 -1.091160796928540E-004
                   153 -1.843516351069540E-004
                   154 -6.925278260507620E-005
                   155  7.115756276125900E-004
                   156  4.330043672986010E-004
                   157 -3.044898948036510E-005
                   158  1.420629108600500E-004
                   159 -3.662866980490860E-004
                   160 -9.712032680889131E-006
                   161 -1.758443592134940E-005
                   162 -2.424028082638900E-004
                   163 -1.183070510521510E-004
                   164  1.021312015405970E-003
                   165 -2.650965541165501E-007
                   166 -1.461150740326630E-005
                   167 -2.304886765145950E-006
                   168  1.693996305875354E-005
                   169  4.014577485804740E-006
                   170 -6.906820902597705E-005
                   171  4.970273792986460E-005
                   172  2.533034747191540E-005
                   173 -8.340435340106020E-005
                   174 -8.308769273802349E-006
                   175 -3.261080779038934E-007
                   176 -1.790253528922909E-005
                   177 -1.370890799299449E-007
                   178 -1.950798839288296E-006
                   179  3.033221360887330E-006
                   180 -1.581676303564228E-006
                   181 -2.252901101570313E-007
                   182 -1.104897274712560E-004
                   183 -1.217151002149930E-004
                   184  2.212554556681890E-005
                   185  2.330205336637890E-004
                   186 -2.606267875089220E-004
                   187  1.264381151284640E-005
                   188 -1.198449348199440E-004
                   189  1.381357515825180E-004
                   190 -4.007248793875150E-005
                   191  3.824149121072780E-004
                   192 -4.576325671668700E-004
                   193 -1.147173466380260E-004
                   194  8.107206698942209E-004
                   195  3.126820527329534E-005
                   196 -1.401482686861700E-005
                   197 -5.677616394188430E-006
                   198 -1.619817596771820E-005
                   199  7.417949976745490E-007
                   200 -1.755484915494879E-005
                   201 -2.196425222602570E-004
                   202 -3.532166329281590E-006
                   203 -7.326570316165200E-006
                   204  2.666780831024330E-005
                   205 -1.602479418536342E-007
                   206  3.434705083294433E-006
                   207 -2.078797826596616E-006
                   208  1.191108542161868E-005
                   209 -3.119867965060630E-007
                   210 -4.896654735310653E-006
                   211 -1.499176015964622E-006
                   212 -9.813410200072230E-004
                   213  1.502724677079830E-003
                   214  1.682630083124620E-004
                   215 -1.666629677115640E-005
                   216  2.359115365479400E-004
                   217 -2.098917843700720E-003
                   218  1.836983181707200E-003
                   219  1.481202681980540E-004
                   220  3.499968206521760E-005
                   221  3.395855134998230E-004
                   222  1.824557405002520E-003
                   223 -2.001732083439440E-003
                   224 -4.253017957729230E-006
                   225 -1.694711874311990E-005
                   226  1.486937093097010E-004
                   227  5.369807390340030E-004
                   228  2.420193577295370E-004
                   229 -3.645533710147260E-005
                   230  1.126606844946740E-005
                   231 -1.108526354253800E-004
                   232  9.105013281097551E-004
                   233  1.177127787771800E-004
                   234  2.878458785883810E-006
                   235 -6.032595554497650E-006
                   236  5.083283333290710E-005
                   237  1.908026780228660E-004
                   238 -6.861635248146880E-004
                   239 -3.396772331642940E-005
                   240  1.134399410411230E-006
                   241 -2.207191550312610E-005
                   242 -3.859057148323030E-004
                   243  2.477571654180650E-004
                   244  3.424726060054470E-005
                   245  1.957894935950230E-006
                   246 -5.137588664573860E-006
 Sym= __2_a__
 Ene=  0.000000000000000E+000
 Spin= Alpha
 Occup=    2.00000000000000     
                     1 -4.304643614010980E-005
                     2  6.524679394451579E-005
                     3 -7.893790522640620E-004
                     4 -2.060363862827400E-005
                     5  9.331770385826871E-004
                     6  1.589793552235170E-003
                     7 -1.397340927815550E-004
                     8  1.236551700165880E-003
                     9 -1.542645921648970E-004
                    10  6.464062390677480E-006
                    11 -1.270173503788190E-004
                    12  1.401752472868140E-004
                    13  1.973303027851330E-005
                    14 -1.564491721682150E-004
                    15 -4.488669383982832E-005
                    16  3.009326379625680E-005
                    17  3.253468307616700E-006
                    18  5.164303624060240E-005
                    19  3.966715311481280E-008
                    20  6.006169976782282E-005
                    21 -5.181130944140940E-005
                    22 -2.733348372055480E-005
                    23  9.448964214827600E-005
                    24  1.678157104239480E-005
                    25 -2.725712466186097E-005
                    26  1.256975063269388E-004
                    27  9.804139487673066E-006
                    28 -6.421994747157780E-005
                    29 -9.194226583818660E-006
                    30  1.089827508654150E-004
                    31 -6.508294041234178E-007
                    32   1.00083487404478     
                    33  8.519435925645609E-003
                    34  2.847738443799090E-003
                    35 -8.434971163749231E-003
                    36 -1.245556610878690E-003
                    37 -7.929877697415660E-005
                    38  6.905369942865621E-005
                    39  7.538877667107070E-004
                    40  9.077427388212819E-005
                    41 -4.329527938956660E-004
                    42  2.405696826255010E-003
                    43  2.989856433322840E-005
                    44  4.212630959194280E-004
                    45  3.222696406099416E-004
                    46 -1.777486369281920E-005
                    47 -1.053795946630590E-004
                    48  3.054849162771080E-004
                    49  1.795908756504210E-005
                    50 -1.016711930894982E-003
                    51 -3.991717726700270E-004
                    52  2.158504920390870E-004
                    53 -1.141586865654206E-004
                    54  4.114120624557650E-005
                    55 -2.536645757135682E-005
                    56  2.531400690914512E-004
                    57  6.791173131179538E-006
                    58 -3.104057598733620E-005
                    59 -3.976738658579210E-005
                    60  6.783948764740099E-005
                    61 -1.110566354312615E-006
                    62  1.663414066514790E-002
                    63 -1.315187005858120E-003
                    64 -2.891381199546920E-004
                    65  2.737968315911080E-003
                    66 -4.564855625125050E-004
                    67 -7.512331141200770E-005
                    68  4.751385292024520E-004
                    69  2.615600171943510E-005
                    70 -3.361978558456390E-005
                    71  2.760617637405580E-004
                    72  1.886756791663030E-004
                    73  2.185353174407970E-004
                    74 -1.783027666913420E-003
                    75  1.749710961590933E-005
                    76  2.419420426583740E-005
                    77  2.731315274581970E-006
                    78 -4.976872282390540E-005
                    79 -5.520390776047760E-006
                    80 -5.674981538393353E-004
                    81 -3.844637940972820E-004
                    82  7.235541037321970E-006
                    83  8.126818788169300E-004
                    84  9.352104062947960E-005
                    85  3.452663924381140E-005
                    86  1.067036773793568E-004
                    87  1.935385021000756E-005
                    88 -3.037437091897500E-005
                    89 -2.591822166705840E-005
                    90 -2.624450117824085E-005
                    91  6.958452852626011E-006
                    92  1.870238442794990E-002
                    93 -1.747993648084600E-003
                    94 -3.418041121122880E-004
                    95  3.405194876335950E-003
                    96 -2.666941348506520E-004
                    97  2.144463159746980E-005
                    98 -3.076048228506740E-004
                    99 -1.258045726769870E-004
                   100  9.257813911683900E-005
                   101 -8.187592774628911E-004
                   102  3.732441115164600E-004
                   103 -1.656454720678760E-004
                   104  1.462206973887220E-003
                   105  7.831723655330214E-006
                   106 -2.017715337270210E-006
                   107  1.087532335856110E-006
                   108 -2.162776621252260E-005
                   109 -9.168401222277630E-007
                   110 -1.390329906966309E-004
                   111  5.403978181038420E-004
                   112 -2.616575148496530E-005
                   113  6.116545880513040E-004
                   114 -2.786863647215530E-005
                   115 -4.369863692117905E-005
                   116  8.065873910608809E-005
                   117 -1.456277880187780E-005
                   118  1.677251582615262E-005
                   119 -1.889429477468260E-005
                   120 -2.781885991719776E-005
                   121 -2.877985379848790E-007
                   122 -3.485545631532260E-005
                   123 -7.578663895098810E-004
                   124  2.453804338111360E-004
                   125 -4.371811355267140E-004
                   126 -3.520355013552710E-006
                   127  5.042223224323830E-006
                   128 -5.974085042466320E-005
                   129  6.246007471914850E-004
                   130  1.131851401603280E-005
                   131  5.956590892689410E-005
                   132  2.387927914319650E-004
                   133 -4.393193333212920E-005
                   134  4.337520723258340E-004
                   135  3.069059186159237E-006
                   136  3.469529775559360E-005
                   137  5.326246306726810E-006
                   138 -4.144912157229320E-005
                   139 -6.539283102857640E-006
                   140  1.861709965795075E-004
                   141 -3.031651409841850E-004
                   142 -2.125564716654960E-005
                   143 -2.185047877807120E-004
                   144  2.350421172959010E-005
                   145 -7.174792330972193E-006
                   146  1.112045953680637E-005
                   147 -1.778124726860525E-006
                   148 -6.524311600259739E-008
                   149 -4.998476901061610E-006
                   150 -1.912728216309335E-005
                   151  1.723681980987814E-006
                   152  5.093680267449580E-005
                   153 -7.638469844691070E-004
                   154  2.284373224537010E-004
                   155 -1.272895894273330E-004
                   156 -7.930718867354260E-005
                   157 -1.135090136718260E-005
                   158  4.437825511301260E-005
                   159  4.722533824177360E-004
                   160  1.541489239890210E-005