[Molden Format]
[Atoms] AU
  N     1    7    -0.0053203100   -0.0001761600   -4.3354123700        
  C     2    6    -0.0032781100   -0.0017389500   -1.7650734300        
  C     3    6     0.0800983000   -2.3340525900   -0.4151384400        
  C     4    6    -0.0845070400    2.3289313600   -0.4121725400        
  C     5    6     0.1281282700   -2.2998291400    2.1719252000        
  C     6    6    -0.1284259900    2.2915619900    2.1749206300        
  C     7    6     0.0008867600   -0.0049260700    3.4768611200        
  H     8    1    -1.1433952800   -1.2200656100   -5.3453710700        
  H     9    1     1.1311495200    1.2209416000   -5.3456941100        
  H    10    1     0.1728953700   -4.0639803800   -1.4538405000        
  H    11    1    -0.1789528800    4.0601208500   -1.4486214500        
  H    12    1     0.2615856200   -4.0375621900    3.2031852000        
  H    13    1    -0.2602427600    4.0280396000    3.2085037400        
  H    14    1     0.0024978900   -0.0061589600    5.5046178400        
[5D]
[7F]
[GTO]
  1  0
   s    12 1.00
  0.114200D+05  0.172695D-04
  0.171200D+04  0.134411D-03
  0.389300D+03  0.694561D-03
  0.110000D+03  0.278531D-02
  0.355700D+02  0.863457D-02
  0.125400D+02  0.199805D-01
  0.464400D+01  0.262908D-01
  0.129300D+01 -0.243845D-01
  0.511800D+00 -0.924934D-01
  0.178700D+00 -0.339683D+00
  0.246240D-01  0.345111D+00
  0.112530D-01  0.752750D+00
   s    10 1.00
  0.114200D+05  0.523000D-03
  0.171200D+04  0.404500D-02
  0.389300D+03  0.207750D-01
  0.110000D+03  0.807269D-01
  0.355700D+02  0.233074D+00
  0.125400D+02  0.433501D+00
  0.464400D+01  0.347472D+00
  0.129300D+01  0.412620D-01
  0.511800D+00 -0.850799D-02
  0.178700D+00  0.238400D-02
   s    10 1.00
  0.114200D+05 -0.115000D-03
  0.171200D+04 -0.895000D-03
  0.389300D+03 -0.462400D-02
  0.110000D+03 -0.185280D-01
  0.355700D+02 -0.573390D-01
  0.125400D+02 -0.132076D+00
  0.464400D+01 -0.172510D+00
  0.129300D+01  0.151814D+00
  0.511800D+00  0.599944D+00
  0.178700D+00  0.387462D+00
   s     1 1.00
  0.129300D+01  0.100000D+01
   s     1 1.00
  0.178700D+00  0.100000D+01
   p     5 1.00
  0.266300D+02  0.146700D-01
  0.594800D+01  0.917640D-01
  0.174200D+01  0.298683D+00
  0.555000D+00  0.498487D+00
  0.172500D+00  0.337023D+00
   p     1 1.00
  0.174200D+01  0.100000D+01
   p     1 1.00
  0.555000D+00  0.100000D+01
   d     1 1.00
  0.165400D+01  0.100000D+01
   d     1 1.00
  0.469000D+00  0.100000D+01
   f     1 1.00
  0.109300D+01  0.100000D+01
  
  2  0
   s    10 1.00
  0.823600D+04  0.531000D-03
  0.123500D+04  0.410800D-02
  0.280800D+03  0.210870D-01
  0.792700D+02  0.818530D-01
  0.255900D+02  0.234817D+00
  0.899700D+01  0.434401D+00
  0.331900D+01  0.346129D+00
  0.905900D+00  0.393780D-01
  0.364300D+00 -0.898300D-02
  0.128500D+00  0.238500D-02
   s    10 1.00
  0.823600D+04 -0.113000D-03
  0.123500D+04 -0.878000D-03
  0.280800D+03 -0.454000D-02
  0.792700D+02 -0.181330D-01
  0.255900D+02 -0.557600D-01
  0.899700D+01 -0.126895D+00
  0.331900D+01 -0.170352D+00
  0.905900D+00  0.140382D+00
  0.364300D+00  0.598684D+00
  0.128500D+00  0.395389D+00
   s     1 1.00
  0.905900D+00  0.100000D+01
   s     1 1.00
  0.364300D+00  0.100000D+01
   p     5 1.00
  0.187100D+02  0.140310D-01
  0.413300D+01  0.868660D-01
  0.120000D+01  0.290216D+00
  0.382700D+00  0.501008D+00
  0.120900D+00  0.343406D+00
   p     1 1.00
  0.382700D+00  0.100000D+01
   p     1 1.00
  0.120900D+00  0.100000D+01
   d     1 1.00
  0.109700D+01  0.100000D+01
   d     1 1.00
  0.318000D+00  0.100000D+01
   f     1 1.00
  0.761000D+00  0.100000D+01
  
  3  0
   s    10 1.00
  0.823600D+04  0.531000D-03
  0.123500D+04  0.410800D-02
  0.280800D+03  0.210870D-01
  0.792700D+02  0.818530D-01
  0.255900D+02  0.234817D+00
  0.899700D+01  0.434401D+00
  0.331900D+01  0.346129D+00
  0.905900D+00  0.393780D-01
  0.364300D+00 -0.898300D-02
  0.128500D+00  0.238500D-02
   s    10 1.00
  0.823600D+04 -0.113000D-03
  0.123500D+04 -0.878000D-03
  0.280800D+03 -0.454000D-02
  0.792700D+02 -0.181330D-01
  0.255900D+02 -0.557600D-01
  0.899700D+01 -0.126895D+00
  0.331900D+01 -0.170352D+00
  0.905900D+00  0.140382D+00
  0.364300D+00  0.598684D+00
  0.128500D+00  0.395389D+00
   s     1 1.00
  0.905900D+00  0.100000D+01
   s     1 1.00
  0.364300D+00  0.100000D+01
   p     5 1.00
  0.187100D+02  0.140310D-01
  0.413300D+01  0.868660D-01
  0.120000D+01  0.290216D+00
  0.382700D+00  0.501008D+00
  0.120900D+00  0.343406D+00
   p     1 1.00
  0.382700D+00  0.100000D+01
   p     1 1.00
  0.120900D+00  0.100000D+01
   d     1 1.00
  0.109700D+01  0.100000D+01
   d     1 1.00
  0.318000D+00  0.100000D+01
   f     1 1.00
  0.761000D+00  0.100000D+01
  
  4  0
   s    10 1.00
  0.823600D+04  0.531000D-03
  0.123500D+04  0.410800D-02
  0.280800D+03  0.210870D-01
  0.792700D+02  0.818530D-01
  0.255900D+02  0.234817D+00
  0.899700D+01  0.434401D+00
  0.331900D+01  0.346129D+00
  0.905900D+00  0.393780D-01
  0.364300D+00 -0.898300D-02
  0.128500D+00  0.238500D-02
   s    10 1.00
  0.823600D+04 -0.113000D-03
  0.123500D+04 -0.878000D-03
  0.280800D+03 -0.454000D-02
  0.792700D+02 -0.181330D-01
  0.255900D+02 -0.557600D-01
  0.899700D+01 -0.126895D+00
  0.331900D+01 -0.170352D+00
  0.905900D+00  0.140382D+00
  0.364300D+00  0.598684D+00
  0.128500D+00  0.395389D+00
   s     1 1.00
  0.905900D+00  0.100000D+01
   s     1 1.00
  0.364300D+00  0.100000D+01
   p     5 1.00
  0.187100D+02  0.140310D-01
  0.413300D+01  0.868660D-01
  0.120000D+01  0.290216D+00
  0.382700D+00  0.501008D+00
  0.120900D+00  0.343406D+00
   p     1 1.00
  0.382700D+00  0.100000D+01
   p     1 1.00
  0.120900D+00  0.100000D+01
   d     1 1.00
  0.109700D+01  0.100000D+01
   d     1 1.00
  0.318000D+00  0.100000D+01
   f     1 1.00
  0.761000D+00  0.100000D+01
  
  5  0
   s    10 1.00
  0.823600D+04  0.531000D-03
  0.123500D+04  0.410800D-02
  0.280800D+03  0.210870D-01
  0.792700D+02  0.818530D-01
  0.255900D+02  0.234817D+00
  0.899700D+01  0.434401D+00
  0.331900D+01  0.346129D+00
  0.905900D+00  0.393780D-01
  0.364300D+00 -0.898300D-02
  0.128500D+00  0.238500D-02
   s    10 1.00
  0.823600D+04 -0.113000D-03
  0.123500D+04 -0.878000D-03
  0.280800D+03 -0.454000D-02
  0.792700D+02 -0.181330D-01
  0.255900D+02 -0.557600D-01
  0.899700D+01 -0.126895D+00
  0.331900D+01 -0.170352D+00
  0.905900D+00  0.140382D+00
  0.364300D+00  0.598684D+00
  0.128500D+00  0.395389D+00
   s     1 1.00
  0.905900D+00  0.100000D+01
   s     1 1.00
  0.364300D+00  0.100000D+01
   p     5 1.00
  0.187100D+02  0.140310D-01
  0.413300D+01  0.868660D-01
  0.120000D+01  0.290216D+00
  0.382700D+00  0.501008D+00
  0.120900D+00  0.343406D+00
   p     1 1.00
  0.382700D+00  0.100000D+01
   p     1 1.00
  0.120900D+00  0.100000D+01
   d     1 1.00
  0.109700D+01  0.100000D+01
   d     1 1.00
  0.318000D+00  0.100000D+01
   f     1 1.00
  0.761000D+00  0.100000D+01
  
  6  0
   s    10 1.00
  0.823600D+04  0.531000D-03
  0.123500D+04  0.410800D-02
  0.280800D+03  0.210870D-01
  0.792700D+02  0.818530D-01
  0.255900D+02  0.234817D+00
  0.899700D+01  0.434401D+00
  0.331900D+01  0.346129D+00
  0.905900D+00  0.393780D-01
  0.364300D+00 -0.898300D-02
  0.128500D+00  0.238500D-02
   s    10 1.00
  0.823600D+04 -0.113000D-03
  0.123500D+04 -0.878000D-03
  0.280800D+03 -0.454000D-02
  0.792700D+02 -0.181330D-01
  0.255900D+02 -0.557600D-01
  0.899700D+01 -0.126895D+00
  0.331900D+01 -0.170352D+00
  0.905900D+00  0.140382D+00
  0.364300D+00  0.598684D+00
  0.128500D+00  0.395389D+00
   s     1 1.00
  0.905900D+00  0.100000D+01
   s     1 1.00
  0.364300D+00  0.100000D+01
   p     5 1.00
  0.187100D+02  0.140310D-01
  0.413300D+01  0.868660D-01
  0.120000D+01  0.290216D+00
  0.382700D+00  0.501008D+00
  0.120900D+00  0.343406D+00
   p     1 1.00
  0.382700D+00  0.100000D+01
   p     1 1.00
  0.120900D+00  0.100000D+01
   d     1 1.00
  0.109700D+01  0.100000D+01
   d     1 1.00
  0.318000D+00  0.100000D+01
   f     1 1.00
  0.761000D+00  0.100000D+01
  
  7  0
   s    10 1.00
  0.823600D+04  0.531000D-03
  0.123500D+04  0.410800D-02
  0.280800D+03  0.210870D-01
  0.792700D+02  0.818530D-01
  0.255900D+02  0.234817D+00
  0.899700D+01  0.434401D+00
  0.331900D+01  0.346129D+00
  0.905900D+00  0.393780D-01
  0.364300D+00 -0.898300D-02
  0.128500D+00  0.238500D-02
   s    10 1.00
  0.823600D+04 -0.113000D-03
  0.123500D+04 -0.878000D-03
  0.280800D+03 -0.454000D-02
  0.792700D+02 -0.181330D-01
  0.255900D+02 -0.557600D-01
  0.899700D+01 -0.126895D+00
  0.331900D+01 -0.170352D+00
  0.905900D+00  0.140382D+00
  0.364300D+00  0.598684D+00
  0.128500D+00  0.395389D+00
   s     1 1.00
  0.905900D+00  0.100000D+01
   s     1 1.00
  0.364300D+00  0.100000D+01
   p     5 1.00
  0.187100D+02  0.140310D-01
  0.413300D+01  0.868660D-01
  0.120000D+01  0.290216D+00
  0.382700D+00  0.501008D+00
  0.120900D+00  0.343406D+00
   p     1 1.00
  0.382700D+00  0.100000D+01
   p     1 1.00
  0.120900D+00  0.100000D+01
   d     1 1.00
  0.109700D+01  0.100000D+01
   d     1 1.00
  0.318000D+00  0.100000D+01
   f     1 1.00
  0.761000D+00  0.100000D+01
  
  8  0
   s     4 1.00
  0.130100D+02  0.196850D-01
  0.196200D+01  0.137977D+00
  0.444600D+00  0.478148D+00
  0.122000D+00  0.501240D+00
   s     1 1.00
  0.122000D+00  0.100000D+01
   p     1 1.00
  0.727000D+00  0.100000D+01
  
  9  0
   s     4 1.00
  0.130100D+02  0.196850D-01
  0.196200D+01  0.137977D+00
  0.444600D+00  0.478148D+00
  0.122000D+00  0.501240D+00
   s     1 1.00
  0.122000D+00  0.100000D+01
   p     1 1.00
  0.727000D+00  0.100000D+01
  
 10  0
   s     4 1.00
  0.130100D+02  0.196850D-01
  0.196200D+01  0.137977D+00
  0.444600D+00  0.478148D+00
  0.122000D+00  0.501240D+00
   s     1 1.00
  0.122000D+00  0.100000D+01
   p     1 1.00
  0.727000D+00  0.100000D+01
  
 11  0
   s     4 1.00
  0.130100D+02  0.196850D-01
  0.196200D+01  0.137977D+00
  0.444600D+00  0.478148D+00
  0.122000D+00  0.501240D+00
   s     1 1.00
  0.122000D+00  0.100000D+01
   p     1 1.00
  0.727000D+00  0.100000D+01
  
 12  0
   s     4 1.00
  0.130100D+02  0.196850D-01
  0.196200D+01  0.137977D+00
  0.444600D+00  0.478148D+00
  0.122000D+00  0.501240D+00
   s     1 1.00
  0.122000D+00  0.100000D+01
   p     1 1.00
  0.727000D+00  0.100000D+01
  
 13  0
   s     4 1.00
  0.130100D+02  0.196850D-01
  0.196200D+01  0.137977D+00
  0.444600D+00  0.478148D+00
  0.122000D+00  0.501240D+00
   s     1 1.00
  0.122000D+00  0.100000D+01
   p     1 1.00
  0.727000D+00  0.100000D+01
  
 14  0
   s     4 1.00
  0.130100D+02  0.196850D-01
  0.196200D+01  0.137977D+00
  0.444600D+00  0.478148D+00
  0.122000D+00  0.501240D+00
   s     1 1.00
  0.122000D+00  0.100000D+01
   p     1 1.00
  0.727000D+00  0.100000D+01
  
[MO]
 Sym= __1_a__
 Ene=  0.000000000000000E+000
 Spin= Alpha
 Occup=    2.00000000000000     
                     1  5.027093823575960E-005
                     2  0.997918277670329     
                     3  1.039338523257470E-002
                     4  2.111273365321800E-003
                     5  1.429746362489040E-003
                     6  3.368590180433880E-006
                     7 -2.581921213284710E-006
                     8  4.228372630669070E-003
                     9 -1.720118840514840E-007
                    10  1.382413451674210E-007
                    11 -2.108946688726320E-004
                    12 -3.123110370572350E-007
                    13  2.071879648789900E-007
                    14 -3.901764666528440E-004
                    15  2.112910469010907E-004
                    16  3.698550884541570E-007
                    17 -2.792478598577660E-007
                    18 -2.745476727004960E-005
                    19  9.291909415416210E-005
                    20  1.200583562751444E-004
                    21 -2.082559718022530E-007
                    22  2.054738444266740E-007
                    23  7.551789103862780E-005
                    24 -5.068046459059180E-004
                    25 -1.854951464929762E-004
                    26  2.558753712629699E-007
                    27 -2.324243106030482E-007
                    28  3.555105479171400E-005
                    29 -6.248238510041090E-005
                    30  1.262383354821650E-008
                    31 -8.797848015786235E-008
                    32 -2.631436260506480E-004
                    33  2.898462604006090E-003
                    34  1.354722283709950E-004
                    35 -4.717964411458780E-004
                    36 -5.543630724340670E-006
                    37  4.257257725842510E-006
                    38 -6.971296612231390E-003
                    39  8.659526887324230E-008
                    40 -1.136672816687320E-007
                    41  9.881112700702571E-005
                    42  3.351170027445620E-006
                    43 -2.524309359009230E-006
                    44  4.226999011495870E-003
                    45  3.654227386886493E-004
                    46  4.044377433094800E-007
                    47 -4.338425724568680E-007
                    48  1.140059508611684E-004
                    49 -1.320622947239240E-005
                    50  4.099547959189813E-004
                    51  7.459418409066920E-007
                    52 -5.839403971745340E-007
                    53 -1.388189373862394E-004
                    54  1.171486686749720E-004
                    55 -8.192899350199337E-005
                    56  6.764834100166757E-008
                    57 -1.497107498842913E-007
                    58  5.604195349668500E-005
                    59 -2.316256023173500E-005
                    60 -3.746342752565203E-008
                    61 -6.813536836145895E-008
                    62 -2.048169830628320E-004
                    63 -1.708921166283950E-003
                    64  2.136640523690210E-005
                    65  7.281271079585510E-004
                    66 -1.662310389221810E-005
                    67 -8.779332314522710E-004
                    68  1.107256002493470E-003
                    69  5.693813977088930E-005
                    70  4.856022725255330E-005
                    71  3.526392402502450E-004
                    72  4.428999759404110E-005
                    73 -6.732434007504390E-004
                    74 -2.312190148151420E-004
                    75  9.098556184904347E-005
                    76  2.765027468237680E-006
                    77 -1.189482559812760E-005
                    78  3.570904837952080E-005
                    79  5.904672368969640E-008
                    80  3.673050282228092E-005
                    81 -3.109872944968490E-005
                    82  8.315136410224241E-005
                    83  4.466931389502760E-006
                    84  3.523903974861530E-005
                    85 -8.259945045101401E-005
                    86  5.850793761059358E-006
                    87 -1.264689827180625E-005
                    88  2.106886322427560E-005
                    89 -7.082701896206380E-006
                    90  2.197864761674810E-006
                    91  1.995738842271556E-005
                    92 -2.047798301625690E-004
                    93 -1.708772292046660E-003
                    94  2.153430986415660E-005
                    95  7.275848938074250E-004
                    96  1.838089537010610E-005
                    97  8.766058788192939E-004
                    98  1.108407131921980E-003
                    99 -5.636367082410120E-005
                   100 -4.913167693195190E-005
                   101  3.520364704679950E-004
                   102 -4.462333899877440E-005
                   103  6.729413616141200E-004
                   104 -2.301620129734400E-004
                   105  9.098506172395232E-005
                   106 -2.570798798060520E-006
                   107  1.167689849772070E-005
                   108  3.572105421897580E-005
                   109  8.069454709888730E-008
                   110  3.602022592380750E-005
                   111  3.124778281352990E-005
                   112 -8.339822581707050E-005
                   113  4.324903633820360E-006
                   114  3.506466908987990E-005
                   115 -8.258952030846211E-005
                   116 -5.593814663320051E-006
                   117  1.238064182656736E-005
                   118  2.104006514942840E-005
                   119 -7.005495949789140E-006
                   120 -2.228713416853934E-006
                   121 -2.000140478218049E-005
                   122 -1.565526317283920E-004
                   123 -5.860074073167990E-006
                   124  9.459604777904790E-005
                   125  2.029562063714870E-004
                   126 -4.834255154140720E-005
                   127  4.687385333082410E-005
                   128 -8.169322402054819E-004
                   129 -1.240751003290390E-006
                   130  2.256614505971150E-005
                   131  2.762741748912800E-004
                   132  1.957591865610240E-005
                   133 -8.216666101387220E-005
                   134  6.511953675557781E-004
                   135 -8.533015616606666E-006
                   136  2.228962057304590E-006
                   137  4.394294157375240E-006
                   138 -4.614035609793800E-007
                   139  1.806725984010860E-006
                   140 -1.600434365198621E-004
                   141 -1.770513017081290E-005
                   142  1.295474591282710E-004
                   143  2.468975017634600E-005
                   144 -8.776685004719701E-006
                   145 -3.116583042198490E-005
                   146 -1.617759101609636E-007
                   147 -3.261417490732032E-006
                   148 -8.653720115857561E-006
                   149 -1.661047998904260E-006
                   150 -8.538194204672672E-007
                   151 -2.666749430598677E-006
                   152 -1.570408231035490E-004
                   153 -7.588218230946350E-006
                   154  9.409680704666810E-005
                   155  2.060749584093690E-004
                   156  4.703424574826510E-005
                   157 -4.581961719541070E-005
                   158 -8.170336529358640E-004
                   159  1.720492451135090E-006
                   160 -2.328538950094240E-005
                   161  2.758959551463810E-004
                   162 -1.857914639501000E-005
                   163  8.192436809798900E-005
                   164  6.515033690514251E-004
                   165 -8.481196338803796E-006
                   166 -2.251314370505630E-006
                   167 -4.387390381193820E-006
                   168 -5.240525837278100E-007
                   169  1.795398822411170E-006
                   170 -1.602345593661067E-004
                   171  1.722003431733760E-005
                   172 -1.294918338724510E-004
                   173  2.450831345395040E-005
                   174 -9.005575737067521E-006
                   175 -3.108443451962072E-005
                   176  3.048641442681302E-007
                   177  3.196325742860861E-006
                   178 -8.694913584439560E-006
                   179 -1.663680413002760E-006
                   180  8.738696937867857E-007
                   181  2.686622365588483E-006
                   182 -1.328411130863580E-004
                   183 -3.597567976247490E-004
                   184  2.903939409874870E-005
                   185  2.101190513605740E-004
                   186 -4.444593677852970E-008
                   187  1.191325533312840E-007
                   188 -4.521248883090330E-005
                   189  4.196807226525040E-008
                   190 -4.680630815293680E-007
                   191  1.380921775548270E-005
                   192 -7.917590335986190E-009
                   193 -3.533457051189440E-008
                   194 -1.628162081186770E-005
                   195  1.918861749413139E-005
                   196  1.920466060609650E-008
                   197 -8.662279280602850E-010
                   198  7.887998249631840E-006
                   199  1.313273483898340E-006
                   200  4.696972745004840E-005
                   201  2.388220402584140E-008
                   202  1.578763838446290E-007
                   203  3.339863804094700E-005
                   204 -4.374669547378040E-006
                   205 -1.152891771050231E-005
                   206  2.119214396456283E-008
                   207 -3.062072121783496E-008
                   208  3.113658745533340E-006
                   209  2.077530068302200E-006
                   210  1.601854233984108E-010
                   211  2.835548618591088E-008
                   212  4.549063340960600E-003
                   213 -2.633396740472740E-003
                   214  3.697463729552170E-004
                   215  3.717898224526610E-004
                   216  3.870850346566190E-004
                   217  4.549032452532130E-003
                   218 -2.633384979874800E-003
                   219 -3.691285837254640E-004
                   220 -3.722598631756000E-004
                   221  3.872188005083750E-004
                   222 -6.527426200520810E-004
                   223 -2.190475566422330E-004
                   224  3.332017226610510E-006
                   225 -2.965445145317130E-005
                   226 -4.277180075929830E-005
                   227 -6.528111936739219E-004
                   228 -2.186676268606660E-004
                   229 -3.399692923727900E-006
                   230  2.968780657419110E-005
                   231 -4.275750718535150E-005
                   232 -2.509623386603470E-004
                   233 -3.256471303902010E-004
                   234 -2.830473526440260E-006
                   235 -1.074594927353300E-005
                   236  2.165252767267790E-006
                   237 -2.510054573575770E-004
                   238 -3.258056595326030E-004
                   239  2.830109861847690E-006
                   240  1.079071908292940E-005
                   241  2.223322361540940E-006
                   242  8.260368896076900E-005
                   243 -7.192703205297090E-005
                   244  1.264972249097700E-008
                   245 -3.192785605221010E-008
                   246  1.528644352501550E-005
 Sym= __2_a__
 Ene=  0.000000000000000E+000
 Spin= Alpha
 Occup=    2.00000000000000     
                     1 -2.739445577510920E-005
                     2 -1.309795450761440E-004
                     3  2.027719101724980E-003
                     4  6.898225835839240E-005
                     5  1.223886647196150E-003
                     6  1.960873061111160E-006
                     7 -1.503405394381510E-006
                     8  2.475885875363390E-003
                     9 -6.321726543993680E-008
                    10  4.815277481677620E-008
                    11 -8.306110252001329E-005
                    12 -1.796286200179610E-007
                    13  1.455141693667130E-007
                    14 -2.306853209382170E-004
                    15  4.869185767101455E-005
                    16  2.388519350952080E-008
                    17 -4.566769787588650E-008
                    18  3.077018980847640E-005
                    19 -3.009951078836300E-005
                    20 -1.764266641978025E-004
                    21 -5.176841610083640E-008
                    22  1.504206312840820E-007
                    23 -1.282170954225188E-004
                    24  1.440024743445780E-004
                    25  1.943755924793871E-004
                    26 -3.652476368864295E-007
                    27  3.626816069263057E-007
                    28 -3.440689294813300E-005
                    29 -3.229997468479480E-005
                    30  5.746793691142439E-008
                    31 -5.187761003531526E-009
                    32   1.00106584502660     
                    33  9.004448187552380E-003
                    34  2.574798850609590E-003
                    35 -7.808882129896870E-003
                    36 -2.842203050076190E-006
                    37  2.169147480380950E-006
                    38 -3.577216644101800E-003
                    39  9.397237617627640E-007
                    40 -7.154871125618760E-007
                    41  1.183665588783080E-003
                    42  3.180825448522260E-006
                    43 -2.498395314009680E-006
                    44  3.996150963135100E-003
                    45  3.711801262908369E-004
                    46  8.385641222776660E-007
                    47 -1.606768644981300E-007
                    48 -4.017197218659660E-004
                    49  1.407352049755490E-005
                    50  4.055109057996137E-004
                    51 -9.559473417386880E-008
                    52 -9.131394373105330E-007
                    53  8.234352089752300E-004
                    54 -4.520571630212130E-007
                    55  3.327482275335925E-004
                    56 -4.047271890376780E-007
                    57  6.580531922447054E-007
                    58 -1.846700021123526E-004
                    59  1.186073111560910E-005
                    60  1.710400581268657E-007
                    61  1.508357279937106E-007
                    62  9.217260561830760E-003
                    63 -1.904354796436970E-003
                    64 -2.709278803458730E-004
                    65  2.924226217618200E-003
                    66  1.518996472662860E-006
                    67  1.742884937183360E-004
                    68 -8.312169110192470E-005
                    69 -3.909060932304060E-005
                    70  5.370132990907690E-004
                    71  9.043367247980340E-005
                    72  9.117021782297290E-005
                    73 -1.925694230605690E-003
                    74  1.153334106728020E-004
                    75 -2.063602796484000E-005
                    76  1.898163597353410E-006
                    77  1.711488655665580E-005
                    78  2.734894865129480E-005
                    79  2.695386165201290E-006
                    80  7.563645900460638E-004
                    81  3.587559576211850E-005
                    82 -4.202627901449590E-004
                    83 -2.244169432060400E-005
                    84 -2.028835986516680E-005
                    85  6.020468908396890E-005
                    86 -1.380474193443341E-006
                    87  3.416500228630060E-005
                    88 -1.171597062254214E-004
                    89 -1.262512910991000E-006
                    90  4.838181113149794E-006
                    91  4.950444958092810E-005
                    92  9.217234252429190E-003
                    93 -1.904436871026780E-003
                    94 -2.709741309417890E-004
                    95  2.924429657136730E-003
                    96 -1.650424147911730E-006
                    97 -1.741887890722080E-004
                    98 -8.335742413963100E-005
                    99  3.923107031864530E-005
                   100 -5.371167405246730E-004
                   101  8.986377832630339E-005
                   102 -9.099440518047021E-005
                   103  1.925693641072470E-003
                   104  1.176639310044320E-004
                   105 -2.065259763246286E-005
                   106 -1.995428549006390E-006
                   107 -1.711521545544660E-005
                   108  2.732354504059080E-005
                   109  2.670684835117830E-006
                   110  7.574200675867522E-004
                   111 -3.378504908675430E-005
                   112  4.187757114951540E-004
                   113 -2.196525767597220E-005
                   114 -1.957823469320480E-005
                   115  6.029591193311772E-005
                   116  1.437351294340118E-006
                   117 -3.375497997347031E-005
                   118 -1.173020230072916E-004
                   119 -1.261187095203860E-006
                   120 -4.607792123478001E-006
                   121 -4.933123707203050E-005
                   122 -2.036530761390080E-004
                   123 -7.491462535143160E-004
                   124  2.269844679950770E-004
                   125 -1.518549535134220E-004
                   126 -8.247736944568119E-006
                   127 -2.971091836175840E-005
                   128 -2.169858691345240E-004
                   129  1.760282866159510E-005
                   130  1.329185048009530E-005
                   131  5.519498293882090E-004
                   132 -1.180748625090160E-005
                   133  3.041544325185410E-004
                   134  6.892106866004020E-004
                   135 -1.914565712135703E-005
                   136 -3.646987694317480E-006
                   137  4.879217813748580E-005
                   138  1.479760840328908E-005
                   139  3.199968848943420E-006
                   140 -3.009353940264551E-004
                   141 -2.825865892539310E-007
                   142 -2.356684910761140E-004
                   143 -2.158120217125140E-005
                   144 -1.484121415091810E-005
                   145 -4.396861112121399E-006
                   146  4.958779262768147E-006
                   147 -3.200605924967463E-005
                   148 -3.425263446283900E-005
                   149 -4.403443013282390E-006
                   150  7.551739266046898E-007
                   151 -6.656084422906581E-006
                   152 -2.033624451978980E-004
                   153 -7.481806526542780E-004
                   154  2.270646995767310E-004
                   155 -1.529314682986550E-004
                   156  7.904414278890201E-006
                   157  2.996291082266970E-005
                   158 -2.169667962918520E-004
                   159 -1.673239617135550E-005
                   160 -1.390218209773030E-005