[Molden Format]
[Atoms] AU
  N     1    7    -0.0053203100   -0.0001761600   -4.3354123700        
  C     2    6    -0.0032781100   -0.0017389500   -1.7650734300        
  C     3    6     0.0800983000   -2.3340525900   -0.4151384400        
  C     4    6    -0.0845070400    2.3289313600   -0.4121725400        
  C     5    6     0.1281282700   -2.2998291400    2.1719252000        
  C     6    6    -0.1284259900    2.2915619900    2.1749206300        
  C     7    6     0.0008867600   -0.0049260700    3.4768611200        
  H     8    1    -1.1433952800   -1.2200656100   -5.3453710700        
  H     9    1     1.1311495200    1.2209416000   -5.3456941100        
  H    10    1     0.1728953700   -4.0639803800   -1.4538405000        
  H    11    1    -0.1789528800    4.0601208500   -1.4486214500        
  H    12    1     0.2615856200   -4.0375621900    3.2031852000        
  H    13    1    -0.2602427600    4.0280396000    3.2085037400        
  H    14    1     0.0024978900   -0.0061589600    5.5046178400        
[5D]
[7F]
[GTO]
  1  0
   s    12 1.00
  0.114200D+05  0.172695D-04
  0.171200D+04  0.134411D-03
  0.389300D+03  0.694561D-03
  0.110000D+03  0.278531D-02
  0.355700D+02  0.863457D-02
  0.125400D+02  0.199805D-01
  0.464400D+01  0.262908D-01
  0.129300D+01 -0.243845D-01
  0.511800D+00 -0.924934D-01
  0.178700D+00 -0.339683D+00
  0.246240D-01  0.345111D+00
  0.112530D-01  0.752750D+00
   s    10 1.00
  0.114200D+05  0.523000D-03
  0.171200D+04  0.404500D-02
  0.389300D+03  0.207750D-01
  0.110000D+03  0.807269D-01
  0.355700D+02  0.233074D+00
  0.125400D+02  0.433501D+00
  0.464400D+01  0.347472D+00
  0.129300D+01  0.412620D-01
  0.511800D+00 -0.850799D-02
  0.178700D+00  0.238400D-02
   s    10 1.00
  0.114200D+05 -0.115000D-03
  0.171200D+04 -0.895000D-03
  0.389300D+03 -0.462400D-02
  0.110000D+03 -0.185280D-01
  0.355700D+02 -0.573390D-01
  0.125400D+02 -0.132076D+00
  0.464400D+01 -0.172510D+00
  0.129300D+01  0.151814D+00
  0.511800D+00  0.599944D+00
  0.178700D+00  0.387462D+00
   s     1 1.00
  0.129300D+01  0.100000D+01
   s     1 1.00
  0.178700D+00  0.100000D+01
   p     5 1.00
  0.266300D+02  0.146700D-01
  0.594800D+01  0.917640D-01
  0.174200D+01  0.298683D+00
  0.555000D+00  0.498487D+00
  0.172500D+00  0.337023D+00
   p     1 1.00
  0.174200D+01  0.100000D+01
   p     1 1.00
  0.555000D+00  0.100000D+01
   d     1 1.00
  0.165400D+01  0.100000D+01
   d     1 1.00
  0.469000D+00  0.100000D+01
   f     1 1.00
  0.109300D+01  0.100000D+01
  
  2  0
   s    10 1.00
  0.823600D+04  0.531000D-03
  0.123500D+04  0.410800D-02
  0.280800D+03  0.210870D-01
  0.792700D+02  0.818530D-01
  0.255900D+02  0.234817D+00
  0.899700D+01  0.434401D+00
  0.331900D+01  0.346129D+00
  0.905900D+00  0.393780D-01
  0.364300D+00 -0.898300D-02
  0.128500D+00  0.238500D-02
   s    10 1.00
  0.823600D+04 -0.113000D-03
  0.123500D+04 -0.878000D-03
  0.280800D+03 -0.454000D-02
  0.792700D+02 -0.181330D-01
  0.255900D+02 -0.557600D-01
  0.899700D+01 -0.126895D+00
  0.331900D+01 -0.170352D+00
  0.905900D+00  0.140382D+00
  0.364300D+00  0.598684D+00
  0.128500D+00  0.395389D+00
   s     1 1.00
  0.905900D+00  0.100000D+01
   s     1 1.00
  0.364300D+00  0.100000D+01
   p     5 1.00
  0.187100D+02  0.140310D-01
  0.413300D+01  0.868660D-01
  0.120000D+01  0.290216D+00
  0.382700D+00  0.501008D+00
  0.120900D+00  0.343406D+00
   p     1 1.00
  0.382700D+00  0.100000D+01
   p     1 1.00
  0.120900D+00  0.100000D+01
   d     1 1.00
  0.109700D+01  0.100000D+01
   d     1 1.00
  0.318000D+00  0.100000D+01
   f     1 1.00
  0.761000D+00  0.100000D+01
  
  3  0
   s    10 1.00
  0.823600D+04  0.531000D-03
  0.123500D+04  0.410800D-02
  0.280800D+03  0.210870D-01
  0.792700D+02  0.818530D-01
  0.255900D+02  0.234817D+00
  0.899700D+01  0.434401D+00
  0.331900D+01  0.346129D+00
  0.905900D+00  0.393780D-01
  0.364300D+00 -0.898300D-02
  0.128500D+00  0.238500D-02
   s    10 1.00
  0.823600D+04 -0.113000D-03
  0.123500D+04 -0.878000D-03
  0.280800D+03 -0.454000D-02
  0.792700D+02 -0.181330D-01
  0.255900D+02 -0.557600D-01
  0.899700D+01 -0.126895D+00
  0.331900D+01 -0.170352D+00
  0.905900D+00  0.140382D+00
  0.364300D+00  0.598684D+00
  0.128500D+00  0.395389D+00
   s     1 1.00
  0.905900D+00  0.100000D+01
   s     1 1.00
  0.364300D+00  0.100000D+01
   p     5 1.00
  0.187100D+02  0.140310D-01
  0.413300D+01  0.868660D-01
  0.120000D+01  0.290216D+00
  0.382700D+00  0.501008D+00
  0.120900D+00  0.343406D+00
   p     1 1.00
  0.382700D+00  0.100000D+01
   p     1 1.00
  0.120900D+00  0.100000D+01
   d     1 1.00
  0.109700D+01  0.100000D+01
   d     1 1.00
  0.318000D+00  0.100000D+01
   f     1 1.00
  0.761000D+00  0.100000D+01
  
  4  0
   s    10 1.00
  0.823600D+04  0.531000D-03
  0.123500D+04  0.410800D-02
  0.280800D+03  0.210870D-01
  0.792700D+02  0.818530D-01
  0.255900D+02  0.234817D+00
  0.899700D+01  0.434401D+00
  0.331900D+01  0.346129D+00
  0.905900D+00  0.393780D-01
  0.364300D+00 -0.898300D-02
  0.128500D+00  0.238500D-02
   s    10 1.00
  0.823600D+04 -0.113000D-03
  0.123500D+04 -0.878000D-03
  0.280800D+03 -0.454000D-02
  0.792700D+02 -0.181330D-01
  0.255900D+02 -0.557600D-01
  0.899700D+01 -0.126895D+00
  0.331900D+01 -0.170352D+00
  0.905900D+00  0.140382D+00
  0.364300D+00  0.598684D+00
  0.128500D+00  0.395389D+00
   s     1 1.00
  0.905900D+00  0.100000D+01
   s     1 1.00
  0.364300D+00  0.100000D+01
   p     5 1.00
  0.187100D+02  0.140310D-01
  0.413300D+01  0.868660D-01
  0.120000D+01  0.290216D+00
  0.382700D+00  0.501008D+00
  0.120900D+00  0.343406D+00
   p     1 1.00
  0.382700D+00  0.100000D+01
   p     1 1.00
  0.120900D+00  0.100000D+01
   d     1 1.00
  0.109700D+01  0.100000D+01
   d     1 1.00
  0.318000D+00  0.100000D+01
   f     1 1.00
  0.761000D+00  0.100000D+01
  
  5  0
   s    10 1.00
  0.823600D+04  0.531000D-03
  0.123500D+04  0.410800D-02
  0.280800D+03  0.210870D-01
  0.792700D+02  0.818530D-01
  0.255900D+02  0.234817D+00
  0.899700D+01  0.434401D+00
  0.331900D+01  0.346129D+00
  0.905900D+00  0.393780D-01
  0.364300D+00 -0.898300D-02
  0.128500D+00  0.238500D-02
   s    10 1.00
  0.823600D+04 -0.113000D-03
  0.123500D+04 -0.878000D-03
  0.280800D+03 -0.454000D-02
  0.792700D+02 -0.181330D-01
  0.255900D+02 -0.557600D-01
  0.899700D+01 -0.126895D+00
  0.331900D+01 -0.170352D+00
  0.905900D+00  0.140382D+00
  0.364300D+00  0.598684D+00
  0.128500D+00  0.395389D+00
   s     1 1.00
  0.905900D+00  0.100000D+01
   s     1 1.00
  0.364300D+00  0.100000D+01
   p     5 1.00
  0.187100D+02  0.140310D-01
  0.413300D+01  0.868660D-01
  0.120000D+01  0.290216D+00
  0.382700D+00  0.501008D+00
  0.120900D+00  0.343406D+00
   p     1 1.00
  0.382700D+00  0.100000D+01
   p     1 1.00
  0.120900D+00  0.100000D+01
   d     1 1.00
  0.109700D+01  0.100000D+01
   d     1 1.00
  0.318000D+00  0.100000D+01
   f     1 1.00
  0.761000D+00  0.100000D+01
  
  6  0
   s    10 1.00
  0.823600D+04  0.531000D-03
  0.123500D+04  0.410800D-02
  0.280800D+03  0.210870D-01
  0.792700D+02  0.818530D-01
  0.255900D+02  0.234817D+00
  0.899700D+01  0.434401D+00
  0.331900D+01  0.346129D+00
  0.905900D+00  0.393780D-01
  0.364300D+00 -0.898300D-02
  0.128500D+00  0.238500D-02
   s    10 1.00
  0.823600D+04 -0.113000D-03
  0.123500D+04 -0.878000D-03
  0.280800D+03 -0.454000D-02
  0.792700D+02 -0.181330D-01
  0.255900D+02 -0.557600D-01
  0.899700D+01 -0.126895D+00
  0.331900D+01 -0.170352D+00
  0.905900D+00  0.140382D+00
  0.364300D+00  0.598684D+00
  0.128500D+00  0.395389D+00
   s     1 1.00
  0.905900D+00  0.100000D+01
   s     1 1.00
  0.364300D+00  0.100000D+01
   p     5 1.00
  0.187100D+02  0.140310D-01
  0.413300D+01  0.868660D-01
  0.120000D+01  0.290216D+00
  0.382700D+00  0.501008D+00
  0.120900D+00  0.343406D+00
   p     1 1.00
  0.382700D+00  0.100000D+01
   p     1 1.00
  0.120900D+00  0.100000D+01
   d     1 1.00
  0.109700D+01  0.100000D+01
   d     1 1.00
  0.318000D+00  0.100000D+01
   f     1 1.00
  0.761000D+00  0.100000D+01
  
  7  0
   s    10 1.00
  0.823600D+04  0.531000D-03
  0.123500D+04  0.410800D-02
  0.280800D+03  0.210870D-01
  0.792700D+02  0.818530D-01
  0.255900D+02  0.234817D+00
  0.899700D+01  0.434401D+00
  0.331900D+01  0.346129D+00
  0.905900D+00  0.393780D-01
  0.364300D+00 -0.898300D-02
  0.128500D+00  0.238500D-02
   s    10 1.00
  0.823600D+04 -0.113000D-03
  0.123500D+04 -0.878000D-03
  0.280800D+03 -0.454000D-02
  0.792700D+02 -0.181330D-01
  0.255900D+02 -0.557600D-01
  0.899700D+01 -0.126895D+00
  0.331900D+01 -0.170352D+00
  0.905900D+00  0.140382D+00
  0.364300D+00  0.598684D+00
  0.128500D+00  0.395389D+00
   s     1 1.00
  0.905900D+00  0.100000D+01
   s     1 1.00
  0.364300D+00  0.100000D+01
   p     5 1.00
  0.187100D+02  0.140310D-01
  0.413300D+01  0.868660D-01
  0.120000D+01  0.290216D+00
  0.382700D+00  0.501008D+00
  0.120900D+00  0.343406D+00
   p     1 1.00
  0.382700D+00  0.100000D+01
   p     1 1.00
  0.120900D+00  0.100000D+01
   d     1 1.00
  0.109700D+01  0.100000D+01
   d     1 1.00
  0.318000D+00  0.100000D+01
   f     1 1.00
  0.761000D+00  0.100000D+01
  
  8  0
   s     4 1.00
  0.130100D+02  0.196850D-01
  0.196200D+01  0.137977D+00
  0.444600D+00  0.478148D+00
  0.122000D+00  0.501240D+00
   s     1 1.00
  0.122000D+00  0.100000D+01
   p     1 1.00
  0.727000D+00  0.100000D+01
  
  9  0
   s     4 1.00
  0.130100D+02  0.196850D-01
  0.196200D+01  0.137977D+00
  0.444600D+00  0.478148D+00
  0.122000D+00  0.501240D+00
   s     1 1.00
  0.122000D+00  0.100000D+01
   p     1 1.00
  0.727000D+00  0.100000D+01
  
 10  0
   s     4 1.00
  0.130100D+02  0.196850D-01
  0.196200D+01  0.137977D+00
  0.444600D+00  0.478148D+00
  0.122000D+00  0.501240D+00
   s     1 1.00
  0.122000D+00  0.100000D+01
   p     1 1.00
  0.727000D+00  0.100000D+01
  
 11  0
   s     4 1.00
  0.130100D+02  0.196850D-01
  0.196200D+01  0.137977D+00
  0.444600D+00  0.478148D+00
  0.122000D+00  0.501240D+00
   s     1 1.00
  0.122000D+00  0.100000D+01
   p     1 1.00
  0.727000D+00  0.100000D+01
  
 12  0
   s     4 1.00
  0.130100D+02  0.196850D-01
  0.196200D+01  0.137977D+00
  0.444600D+00  0.478148D+00
  0.122000D+00  0.501240D+00
   s     1 1.00
  0.122000D+00  0.100000D+01
   p     1 1.00
  0.727000D+00  0.100000D+01
  
 13  0
   s     4 1.00
  0.130100D+02  0.196850D-01
  0.196200D+01  0.137977D+00
  0.444600D+00  0.478148D+00
  0.122000D+00  0.501240D+00
   s     1 1.00
  0.122000D+00  0.100000D+01
   p     1 1.00
  0.727000D+00  0.100000D+01
  
 14  0
   s     4 1.00
  0.130100D+02  0.196850D-01
  0.196200D+01  0.137977D+00
  0.444600D+00  0.478148D+00
  0.122000D+00  0.501240D+00
   s     1 1.00
  0.122000D+00  0.100000D+01
   p     1 1.00
  0.727000D+00  0.100000D+01
  
[MO]
 Sym= __1_A__
 Ene=   1.00000000000000     
 Spin= Alpha
 Occup=    1.00000000000000     
                     1  5.027093823575964E-005
                     2  0.997918277670329     
                     3  1.039338523257470E-002
                     4  2.111273365321800E-003
                     5  1.429746362489038E-003
                     6  3.368590180433880E-006
                     7 -2.581921213284710E-006
                     8  4.228372630669074E-003
                     9 -1.720118840514838E-007
                    10  1.382413451674209E-007
                    11 -2.108946688726322E-004
                    12 -3.123110370572349E-007
                    13  2.071879648789896E-007
                    14 -3.901764666528444E-004
                    15  2.112910469010906E-004
                    16  3.698550884541569E-007
                    17 -2.792478598577662E-007
                    18 -2.745476727004968E-005
                    19  9.291909415416214E-005
                    20  1.200583562751444E-004
                    21 -2.082559718022528E-007
                    22  2.054738444266738E-007
                    23  7.551789103862783E-005
                    24 -5.068046459059179E-004
                    25 -1.854951464929763E-004
                    26  2.558753712629697E-007
                    27 -2.324243106030483E-007
                    28  3.555105479171398E-005
                    29 -6.248238510041090E-005
                    30  1.262383354821650E-008
                    31 -8.797848015786225E-008
                    32 -2.631436260506477E-004
                    33  2.898462604006087E-003
                    34  1.354722283709946E-004
                    35 -4.717964411458780E-004
                    36 -5.543630724340675E-006
                    37  4.257257725842511E-006
                    38 -6.971296612231392E-003
                    39  8.659526887324230E-008
                    40 -1.136672816687319E-007
                    41  9.881112700702571E-005
                    42  3.351170027445624E-006
                    43 -2.524309359009226E-006
                    44  4.226999011495871E-003
                    45  3.654227386886483E-004
                    46  4.044377433094802E-007
                    47 -4.338425724568678E-007
                    48  1.140059508611684E-004
                    49 -1.320622947239245E-005
                    50  4.099547959189813E-004
                    51  7.459418409066923E-007
                    52 -5.839403971745338E-007
                    53 -1.388189373862393E-004
                    54  1.171486686749718E-004
                    55 -8.192899350199349E-005
                    56  6.764834100166783E-008
                    57 -1.497107498842915E-007
                    58  5.604195349668504E-005
                    59 -2.316256023173504E-005
                    60 -3.746342752565207E-008
                    61 -6.813536836145895E-008
                    62 -2.048169830628324E-004
                    63 -1.708921166283953E-003
                    64  2.136640523690209E-005
                    65  7.281271079585508E-004
                    66 -1.662310389221806E-005
                    67 -8.779332314522713E-004
                    68  1.107256002493467E-003
                    69  5.693813977088929E-005
                    70  4.856022725255333E-005
                    71  3.526392402502451E-004
                    72  4.428999759404112E-005
                    73 -6.732434007504394E-004
                    74 -2.312190148151419E-004
                    75  9.098556184904363E-005
                    76  2.765027468237684E-006
                    77 -1.189482559812760E-005
                    78  3.570904837952078E-005
                    79  5.904672368969635E-008
                    80  3.673050282228078E-005
                    81 -3.109872944968489E-005
                    82  8.315136410224241E-005
                    83  4.466931389502752E-006
                    84  3.523903974861530E-005
                    85 -8.259945045101400E-005
                    86  5.850793761059358E-006
                    87 -1.264689827180627E-005
                    88  2.106886322427554E-005
                    89 -7.082701896206375E-006
                    90  2.197864761674816E-006
                    91  1.995738842271558E-005
                    92 -2.047798301625692E-004
                    93 -1.708772292046656E-003
                    94  2.153430986415657E-005
                    95  7.275848938074252E-004
                    96  1.838089537010611E-005
                    97  8.766058788192943E-004
                    98  1.108407131921976E-003
                    99 -5.636367082410120E-005
                   100 -4.913167693195189E-005
                   101  3.520364704679950E-004
                   102 -4.462333899877438E-005
                   103  6.729413616141198E-004
                   104 -2.301620129734400E-004
                   105  9.098506172395236E-005
                   106 -2.570798798060515E-006
                   107  1.167689849772066E-005
                   108  3.572105421897586E-005
                   109  8.069454709888725E-008
                   110  3.602022592380767E-005
                   111  3.124778281352985E-005
                   112 -8.339822581707049E-005
                   113  4.324903633820368E-006
                   114  3.506466908987985E-005
                   115 -8.258952030846219E-005
                   116 -5.593814663320049E-006
                   117  1.238064182656735E-005
                   118  2.104006514942834E-005
                   119 -7.005495949789138E-006
                   120 -2.228713416853931E-006
                   121 -2.000140478218048E-005
                   122 -1.565526317283924E-004
                   123 -5.860074073167993E-006
                   124  9.459604777904794E-005
                   125  2.029562063714872E-004
                   126 -4.834255154140722E-005
                   127  4.687385333082412E-005
                   128 -8.169322402054822E-004
                   129 -1.240751003290388E-006
                   130  2.256614505971147E-005
                   131  2.762741748912803E-004
                   132  1.957591865610240E-005
                   133 -8.216666101387223E-005
                   134  6.511953675557783E-004
                   135 -8.533015616606672E-006
                   136  2.228962057304593E-006
                   137  4.394294157375236E-006
                   138 -4.614035609793800E-007
                   139  1.806725984010863E-006
                   140 -1.600434365198621E-004
                   141 -1.770513017081295E-005
                   142  1.295474591282714E-004
                   143  2.468975017634596E-005
                   144 -8.776685004719704E-006
                   145 -3.116583042198485E-005
                   146 -1.617759101609635E-007
                   147 -3.261417490732035E-006
                   148 -8.653720115857551E-006
                   149 -1.661047998904263E-006
                   150 -8.538194204672679E-007
                   151 -2.666749430598678E-006
                   152 -1.570408231035491E-004
                   153 -7.588218230946352E-006
                   154  9.409680704666814E-005
                   155  2.060749584093688E-004
                   156  4.703424574826510E-005
                   157 -4.581961719541071E-005
                   158 -8.170336529358641E-004
                   159  1.720492451135087E-006
                   160 -2.328538950094240E-005
                   161  2.758959551463813E-004
                   162 -1.857914639500998E-005
                   163  8.192436809798896E-005
                   164  6.515033690514252E-004
                   165 -8.481196338803807E-006
                   166 -2.251314370505628E-006
                   167 -4.387390381193818E-006
                   168 -5.240525837278098E-007
                   169  1.795398822411170E-006
                   170 -1.602345593661066E-004
                   171  1.722003431733764E-005
                   172 -1.294918338724510E-004
                   173  2.450831345395046E-005
                   174 -9.005575737067519E-006
                   175 -3.108443451962077E-005
                   176  3.048641442681300E-007
                   177  3.196325742860860E-006
                   178 -8.694913584439560E-006
                   179 -1.663680413002756E-006
                   180  8.738696937867864E-007
                   181  2.686622365588484E-006
                   182 -1.328411130863577E-004
                   183 -3.597567976247493E-004
                   184  2.903939409874872E-005
                   185  2.101190513605743E-004
                   186 -4.444593677852967E-008
                   187  1.191325533312843E-007
                   188 -4.521248883090331E-005
                   189  4.196807226525037E-008
                   190 -4.680630815293675E-007
                   191  1.380921775548272E-005
                   192 -7.917590335986192E-009
                   193 -3.533457051189438E-008
                   194 -1.628162081186767E-005
                   195  1.918861749413137E-005
                   196  1.920466060609648E-008
                   197 -8.662279280602854E-010
                   198  7.887998249631839E-006
                   199  1.313273483898344E-006
                   200  4.696972745004843E-005
                   201  2.388220402584139E-008
                   202  1.578763838446289E-007
                   203  3.339863804094694E-005
                   204 -4.374669547378036E-006
                   205 -1.152891771050232E-005
                   206  2.119214396456286E-008
                   207 -3.062072121783496E-008
                   208  3.113658745533330E-006
                   209  2.077530068302203E-006
                   210  1.601854233984108E-010
                   211  2.835548618591090E-008
                   212  4.549063340960598E-003
                   213 -2.633396740472737E-003
                   214  3.697463729552173E-004
                   215  3.717898224526610E-004
                   216  3.870850346566192E-004
                   217  4.549032452532133E-003
                   218 -2.633384979874804E-003
                   219 -3.691285837254636E-004
                   220 -3.722598631755996E-004
                   221  3.872188005083751E-004
                   222 -6.527426200520811E-004
                   223 -2.190475566422331E-004
                   224  3.332017226610509E-006
                   225 -2.965445145317125E-005
                   226 -4.277180075929831E-005
                   227 -6.528111936739224E-004
                   228 -2.186676268606659E-004
                   229 -3.399692923727904E-006
                   230  2.968780657419112E-005
                   231 -4.275750718535154E-005
                   232 -2.509623386603474E-004
                   233 -3.256471303902012E-004
                   234 -2.830473526440261E-006
                   235 -1.074594927353300E-005
                   236  2.165252767267793E-006
                   237 -2.510054573575774E-004
                   238 -3.258056595326034E-004
                   239  2.830109861847688E-006
                   240  1.079071908292938E-005
                   241  2.223322361540945E-006
                   242  8.260368896076900E-005
                   243 -7.192703205297085E-005
                   244  1.264972249097699E-008
                   245 -3.192785605221013E-008
                   246  1.528644352501547E-005
 Sym= __2_A__
 Ene=   2.00000000000000     
 Spin= Alpha
 Occup=    1.00000000000000     
                     1 -2.739445577510916E-005
                     2 -1.309795450761444E-004
                     3  2.027719101724979E-003
                     4  6.898225835839239E-005
                     5  1.223886647196155E-003
                     6  1.960873061111164E-006
                     7 -1.503405394381510E-006
                     8  2.475885875363391E-003
                     9 -6.321726543993677E-008
                    10  4.815277481677616E-008
                    11 -8.306110252001327E-005
                    12 -1.796286200179610E-007
                    13  1.455141693667125E-007
                    14 -2.306853209382168E-004
                    15  4.869185767101444E-005
                    16  2.388519350952076E-008
                    17 -4.566769787588645E-008
                    18  3.077018980847632E-005
                    19 -3.009951078836304E-005
                    20 -1.764266641978026E-004
                    21 -5.176841610083635E-008
                    22  1.504206312840817E-007
                    23 -1.282170954225188E-004
                    24  1.440024743445783E-004
                    25  1.943755924793871E-004
                    26 -3.652476368864293E-007
                    27  3.626816069263059E-007
                    28 -3.440689294813304E-005
                    29 -3.229997468479481E-005
                    30  5.746793691142443E-008
                    31 -5.187761003531541E-009
                    32   1.00106584502660     
                    33  9.004448187552380E-003
                    34  2.574798850609590E-003
                    35 -7.808882129896874E-003
                    36 -2.842203050076186E-006
                    37  2.169147480380948E-006
                    38 -3.577216644101801E-003
                    39  9.397237617627635E-007
                    40 -7.154871125618757E-007
                    41  1.183665588783083E-003
                    42  3.180825448522263E-006
                    43 -2.498395314009676E-006
                    44  3.996150963135101E-003
                    45  3.711801262908362E-004
                    46  8.385641222776661E-007
                    47 -1.606768644981302E-007
                    48 -4.017197218659668E-004
                    49  1.407352049755493E-005
                    50  4.055109057996127E-004
                    51 -9.559473417386879E-008
                    52 -9.131394373105330E-007
                    53  8.234352089752298E-004
                    54 -4.520571630212127E-007
                    55  3.327482275335922E-004
                    56 -4.047271890376784E-007
                    57  6.580531922447080E-007
                    58 -1.846700021123525E-004
                    59  1.186073111560913E-005
                    60  1.710400581268654E-007
                    61  1.508357279937107E-007
                    62  9.217260561830755E-003
                    63 -1.904354796436970E-003
                    64 -2.709278803458729E-004
                    65  2.924226217618201E-003
                    66  1.518996472662859E-006
                    67  1.742884937183359E-004
                    68 -8.312169110192469E-005
                    69 -3.909060932304058E-005
                    70  5.370132990907687E-004
                    71  9.043367247980336E-005
                    72  9.117021782297286E-005
                    73 -1.925694230605687E-003
                    74  1.153334106728023E-004
                    75 -2.063602796483999E-005
                    76  1.898163597353414E-006
                    77  1.711488655665581E-005
                    78  2.734894865129486E-005
                    79  2.695386165201292E-006
                    80  7.563645900460649E-004
                    81  3.587559576211846E-005
                    82 -4.202627901449593E-004
                    83 -2.244169432060400E-005
                    84 -2.028835986516680E-005
                    85  6.020468908396879E-005
                    86 -1.380474193443339E-006
                    87  3.416500228630061E-005
                    88 -1.171597062254214E-004
                    89 -1.262512910991004E-006
                    90  4.838181113149789E-006
                    91  4.950444958092816E-005
                    92  9.217234252429190E-003
                    93 -1.904436871026780E-003
                    94 -2.709741309417889E-004
                    95  2.924429657136731E-003
                    96 -1.650424147911731E-006
                    97 -1.741887890722076E-004
                    98 -8.335742413963103E-005
                    99  3.923107031864527E-005
                   100 -5.371167405246733E-004
                   101  8.986377832630335E-005
                   102 -9.099440518047018E-005
                   103  1.925693641072466E-003
                   104  1.176639310044317E-004
                   105 -2.065259763246286E-005
                   106 -1.995428549006388E-006
                   107 -1.711521545544663E-005
                   108  2.732354504059082E-005
                   109  2.670684835117835E-006
                   110  7.574200675867515E-004
                   111 -3.378504908675430E-005
                   112  4.187757114951538E-004
                   113 -2.196525767597222E-005
                   114 -1.957823469320480E-005
                   115  6.029591193311778E-005
                   116  1.437351294340119E-006
                   117 -3.375497997347031E-005
                   118 -1.173020230072917E-004
                   119 -1.261187095203864E-006
                   120 -4.607792123477997E-006
                   121 -4.933123707203036E-005
                   122 -2.036530761390078E-004
                   123 -7.491462535143161E-004
                   124  2.269844679950769E-004
                   125 -1.518549535134216E-004
                   126 -8.247736944568119E-006
                   127 -2.971091836175842E-005
                   128 -2.169858691345242E-004
                   129  1.760282866159510E-005
                   130  1.329185048009526E-005
                   131  5.519498293882094E-004
                   132 -1.180748625090160E-005
                   133  3.041544325185407E-004
                   134  6.892106866004015E-004
                   135 -1.914565712135702E-005
                   136 -3.646987694317480E-006
                   137  4.879217813748581E-005
                   138  1.479760840328908E-005
                   139  3.199968848943424E-006
                   140 -3.009353940264550E-004
                   141 -2.825865892539307E-007
                   142 -2.356684910761144E-004
                   143 -2.158120217125140E-005
                   144 -1.484121415091809E-005
                   145 -4.396861112121409E-006
                   146  4.958779262768149E-006
                   147 -3.200605924967461E-005
                   148 -3.425263446283904E-005
                   149 -4.403443013282388E-006
                   150  7.551739266046893E-007
                   151 -6.656084422906585E-006
                   152 -2.033624451978978E-004
                   153 -7.481806526542775E-004
                   154  2.270646995767308E-004
                   155 -1.529314682986551E-004
                   156  7.904414278890196E-006
                   157  2.996291082266972E-005
                   158 -2.169667962918525E-004
                   159 -1.673239617135555E-005
                   160 -1.390218209773033E-005