[Molden Format]
[Atoms] AU
  N     1    7    -0.0725815400   -4.3248745700    0.0000000000        
  C     2    6     0.0363342000   -1.8293226400    0.0000000000        
  C     3    6    -2.3105406600   -0.4311256100    0.0000000000        
  C     4    6     2.3563646200   -0.3931111100    0.0000000000        
  C     5    6    -2.2864777100    2.1470378700    0.0000000000        
  C     6    6     2.3002167900    2.1832303600    0.0000000000        
  C     7    6    -0.0048670200    3.4854666900    0.0000000000        
  H     8    1    -2.3879010100   -5.6049460200    0.0000000000        
  H     9    1     1.6551337600   -5.2215488000    0.0000000000        
  H    10    1    -4.0351818400   -1.4826482900    0.0000000000        
  H    11    1     4.1169835100   -1.3959738100    0.0000000000        
  H    12    1    -4.0399695000    3.1675073700    0.0000000000        
  H    13    1     4.0374514300    3.2308602100    0.0000000000        
  H    14    1    -0.0188656700    5.5126160500    0.0000000000        
[5D]
[7F]
[GTO]
  1  0
   s    12 1.00
  0.114200D+05  0.172695D-04
  0.171200D+04  0.134411D-03
  0.389300D+03  0.694561D-03
  0.110000D+03  0.278531D-02
  0.355700D+02  0.863457D-02
  0.125400D+02  0.199805D-01
  0.464400D+01  0.262908D-01
  0.129300D+01 -0.243845D-01
  0.511800D+00 -0.924934D-01
  0.178700D+00 -0.339683D+00
  0.246240D-01  0.345111D+00
  0.112530D-01  0.752750D+00
   s    10 1.00
  0.114200D+05  0.523000D-03
  0.171200D+04  0.404500D-02
  0.389300D+03  0.207750D-01
  0.110000D+03  0.807269D-01
  0.355700D+02  0.233074D+00
  0.125400D+02  0.433501D+00
  0.464400D+01  0.347472D+00
  0.129300D+01  0.412620D-01
  0.511800D+00 -0.850799D-02
  0.178700D+00  0.238400D-02
   s    10 1.00
  0.114200D+05 -0.115000D-03
  0.171200D+04 -0.895000D-03
  0.389300D+03 -0.462400D-02
  0.110000D+03 -0.185280D-01
  0.355700D+02 -0.573390D-01
  0.125400D+02 -0.132076D+00
  0.464400D+01 -0.172510D+00
  0.129300D+01  0.151814D+00
  0.511800D+00  0.599944D+00
  0.178700D+00  0.387462D+00
   s     1 1.00
  0.129300D+01  0.100000D+01
   s     1 1.00
  0.178700D+00  0.100000D+01
   p     5 1.00
  0.266300D+02  0.146700D-01
  0.594800D+01  0.917640D-01
  0.174200D+01  0.298683D+00
  0.555000D+00  0.498487D+00
  0.172500D+00  0.337023D+00
   p     1 1.00
  0.174200D+01  0.100000D+01
   p     1 1.00
  0.555000D+00  0.100000D+01
   d     1 1.00
  0.165400D+01  0.100000D+01
   d     1 1.00
  0.469000D+00  0.100000D+01
   f     1 1.00
  0.109300D+01  0.100000D+01
  
  2  0
   s    10 1.00
  0.823600D+04  0.531000D-03
  0.123500D+04  0.410800D-02
  0.280800D+03  0.210870D-01
  0.792700D+02  0.818530D-01
  0.255900D+02  0.234817D+00
  0.899700D+01  0.434401D+00
  0.331900D+01  0.346129D+00
  0.905900D+00  0.393780D-01
  0.364300D+00 -0.898300D-02
  0.128500D+00  0.238500D-02
   s    10 1.00
  0.823600D+04 -0.113000D-03
  0.123500D+04 -0.878000D-03
  0.280800D+03 -0.454000D-02
  0.792700D+02 -0.181330D-01
  0.255900D+02 -0.557600D-01
  0.899700D+01 -0.126895D+00
  0.331900D+01 -0.170352D+00
  0.905900D+00  0.140382D+00
  0.364300D+00  0.598684D+00
  0.128500D+00  0.395389D+00
   s     1 1.00
  0.905900D+00  0.100000D+01
   s     1 1.00
  0.364300D+00  0.100000D+01
   p     5 1.00
  0.187100D+02  0.140310D-01
  0.413300D+01  0.868660D-01
  0.120000D+01  0.290216D+00
  0.382700D+00  0.501008D+00
  0.120900D+00  0.343406D+00
   p     1 1.00
  0.382700D+00  0.100000D+01
   p     1 1.00
  0.120900D+00  0.100000D+01
   d     1 1.00
  0.109700D+01  0.100000D+01
   d     1 1.00
  0.318000D+00  0.100000D+01
   f     1 1.00
  0.761000D+00  0.100000D+01
  
  3  0
   s    10 1.00
  0.823600D+04  0.531000D-03
  0.123500D+04  0.410800D-02
  0.280800D+03  0.210870D-01
  0.792700D+02  0.818530D-01
  0.255900D+02  0.234817D+00
  0.899700D+01  0.434401D+00
  0.331900D+01  0.346129D+00
  0.905900D+00  0.393780D-01
  0.364300D+00 -0.898300D-02
  0.128500D+00  0.238500D-02
   s    10 1.00
  0.823600D+04 -0.113000D-03
  0.123500D+04 -0.878000D-03
  0.280800D+03 -0.454000D-02
  0.792700D+02 -0.181330D-01
  0.255900D+02 -0.557600D-01
  0.899700D+01 -0.126895D+00
  0.331900D+01 -0.170352D+00
  0.905900D+00  0.140382D+00
  0.364300D+00  0.598684D+00
  0.128500D+00  0.395389D+00
   s     1 1.00
  0.905900D+00  0.100000D+01
   s     1 1.00
  0.364300D+00  0.100000D+01
   p     5 1.00
  0.187100D+02  0.140310D-01
  0.413300D+01  0.868660D-01
  0.120000D+01  0.290216D+00
  0.382700D+00  0.501008D+00
  0.120900D+00  0.343406D+00
   p     1 1.00
  0.382700D+00  0.100000D+01
   p     1 1.00
  0.120900D+00  0.100000D+01
   d     1 1.00
  0.109700D+01  0.100000D+01
   d     1 1.00
  0.318000D+00  0.100000D+01
   f     1 1.00
  0.761000D+00  0.100000D+01
  
  4  0
   s    10 1.00
  0.823600D+04  0.531000D-03
  0.123500D+04  0.410800D-02
  0.280800D+03  0.210870D-01
  0.792700D+02  0.818530D-01
  0.255900D+02  0.234817D+00
  0.899700D+01  0.434401D+00
  0.331900D+01  0.346129D+00
  0.905900D+00  0.393780D-01
  0.364300D+00 -0.898300D-02
  0.128500D+00  0.238500D-02
   s    10 1.00
  0.823600D+04 -0.113000D-03
  0.123500D+04 -0.878000D-03
  0.280800D+03 -0.454000D-02
  0.792700D+02 -0.181330D-01
  0.255900D+02 -0.557600D-01
  0.899700D+01 -0.126895D+00
  0.331900D+01 -0.170352D+00
  0.905900D+00  0.140382D+00
  0.364300D+00  0.598684D+00
  0.128500D+00  0.395389D+00
   s     1 1.00
  0.905900D+00  0.100000D+01
   s     1 1.00
  0.364300D+00  0.100000D+01
   p     5 1.00
  0.187100D+02  0.140310D-01
  0.413300D+01  0.868660D-01
  0.120000D+01  0.290216D+00
  0.382700D+00  0.501008D+00
  0.120900D+00  0.343406D+00
   p     1 1.00
  0.382700D+00  0.100000D+01
   p     1 1.00
  0.120900D+00  0.100000D+01
   d     1 1.00
  0.109700D+01  0.100000D+01
   d     1 1.00
  0.318000D+00  0.100000D+01
   f     1 1.00
  0.761000D+00  0.100000D+01
  
  5  0
   s    10 1.00
  0.823600D+04  0.531000D-03
  0.123500D+04  0.410800D-02
  0.280800D+03  0.210870D-01
  0.792700D+02  0.818530D-01
  0.255900D+02  0.234817D+00
  0.899700D+01  0.434401D+00
  0.331900D+01  0.346129D+00
  0.905900D+00  0.393780D-01
  0.364300D+00 -0.898300D-02
  0.128500D+00  0.238500D-02
   s    10 1.00
  0.823600D+04 -0.113000D-03
  0.123500D+04 -0.878000D-03
  0.280800D+03 -0.454000D-02
  0.792700D+02 -0.181330D-01
  0.255900D+02 -0.557600D-01
  0.899700D+01 -0.126895D+00
  0.331900D+01 -0.170352D+00
  0.905900D+00  0.140382D+00
  0.364300D+00  0.598684D+00
  0.128500D+00  0.395389D+00
   s     1 1.00
  0.905900D+00  0.100000D+01
   s     1 1.00
  0.364300D+00  0.100000D+01
   p     5 1.00
  0.187100D+02  0.140310D-01
  0.413300D+01  0.868660D-01
  0.120000D+01  0.290216D+00
  0.382700D+00  0.501008D+00
  0.120900D+00  0.343406D+00
   p     1 1.00
  0.382700D+00  0.100000D+01
   p     1 1.00
  0.120900D+00  0.100000D+01
   d     1 1.00
  0.109700D+01  0.100000D+01
   d     1 1.00
  0.318000D+00  0.100000D+01
   f     1 1.00
  0.761000D+00  0.100000D+01
  
  6  0
   s    10 1.00
  0.823600D+04  0.531000D-03
  0.123500D+04  0.410800D-02
  0.280800D+03  0.210870D-01
  0.792700D+02  0.818530D-01
  0.255900D+02  0.234817D+00
  0.899700D+01  0.434401D+00
  0.331900D+01  0.346129D+00
  0.905900D+00  0.393780D-01
  0.364300D+00 -0.898300D-02
  0.128500D+00  0.238500D-02
   s    10 1.00
  0.823600D+04 -0.113000D-03
  0.123500D+04 -0.878000D-03
  0.280800D+03 -0.454000D-02
  0.792700D+02 -0.181330D-01
  0.255900D+02 -0.557600D-01
  0.899700D+01 -0.126895D+00
  0.331900D+01 -0.170352D+00
  0.905900D+00  0.140382D+00
  0.364300D+00  0.598684D+00
  0.128500D+00  0.395389D+00
   s     1 1.00
  0.905900D+00  0.100000D+01
   s     1 1.00
  0.364300D+00  0.100000D+01
   p     5 1.00
  0.187100D+02  0.140310D-01
  0.413300D+01  0.868660D-01
  0.120000D+01  0.290216D+00
  0.382700D+00  0.501008D+00
  0.120900D+00  0.343406D+00
   p     1 1.00
  0.382700D+00  0.100000D+01
   p     1 1.00
  0.120900D+00  0.100000D+01
   d     1 1.00
  0.109700D+01  0.100000D+01
   d     1 1.00
  0.318000D+00  0.100000D+01
   f     1 1.00
  0.761000D+00  0.100000D+01
  
  7  0
   s    10 1.00
  0.823600D+04  0.531000D-03
  0.123500D+04  0.410800D-02
  0.280800D+03  0.210870D-01
  0.792700D+02  0.818530D-01
  0.255900D+02  0.234817D+00
  0.899700D+01  0.434401D+00
  0.331900D+01  0.346129D+00
  0.905900D+00  0.393780D-01
  0.364300D+00 -0.898300D-02
  0.128500D+00  0.238500D-02
   s    10 1.00
  0.823600D+04 -0.113000D-03
  0.123500D+04 -0.878000D-03
  0.280800D+03 -0.454000D-02
  0.792700D+02 -0.181330D-01
  0.255900D+02 -0.557600D-01
  0.899700D+01 -0.126895D+00
  0.331900D+01 -0.170352D+00
  0.905900D+00  0.140382D+00
  0.364300D+00  0.598684D+00
  0.128500D+00  0.395389D+00
   s     1 1.00
  0.905900D+00  0.100000D+01
   s     1 1.00
  0.364300D+00  0.100000D+01
   p     5 1.00
  0.187100D+02  0.140310D-01
  0.413300D+01  0.868660D-01
  0.120000D+01  0.290216D+00
  0.382700D+00  0.501008D+00
  0.120900D+00  0.343406D+00
   p     1 1.00
  0.382700D+00  0.100000D+01
   p     1 1.00
  0.120900D+00  0.100000D+01
   d     1 1.00
  0.109700D+01  0.100000D+01
   d     1 1.00
  0.318000D+00  0.100000D+01
   f     1 1.00
  0.761000D+00  0.100000D+01
  
  8  0
   s     4 1.00
  0.130100D+02  0.196850D-01
  0.196200D+01  0.137977D+00
  0.444600D+00  0.478148D+00
  0.122000D+00  0.501240D+00
   s     1 1.00
  0.122000D+00  0.100000D+01
   p     1 1.00
  0.727000D+00  0.100000D+01
  
  9  0
   s     4 1.00
  0.130100D+02  0.196850D-01
  0.196200D+01  0.137977D+00
  0.444600D+00  0.478148D+00
  0.122000D+00  0.501240D+00
   s     1 1.00
  0.122000D+00  0.100000D+01
   p     1 1.00
  0.727000D+00  0.100000D+01
  
 10  0
   s     4 1.00
  0.130100D+02  0.196850D-01
  0.196200D+01  0.137977D+00
  0.444600D+00  0.478148D+00
  0.122000D+00  0.501240D+00
   s     1 1.00
  0.122000D+00  0.100000D+01
   p     1 1.00
  0.727000D+00  0.100000D+01
  
 11  0
   s     4 1.00
  0.130100D+02  0.196850D-01
  0.196200D+01  0.137977D+00
  0.444600D+00  0.478148D+00
  0.122000D+00  0.501240D+00
   s     1 1.00
  0.122000D+00  0.100000D+01
   p     1 1.00
  0.727000D+00  0.100000D+01
  
 12  0
   s     4 1.00
  0.130100D+02  0.196850D-01
  0.196200D+01  0.137977D+00
  0.444600D+00  0.478148D+00
  0.122000D+00  0.501240D+00
   s     1 1.00
  0.122000D+00  0.100000D+01
   p     1 1.00
  0.727000D+00  0.100000D+01
  
 13  0
   s     4 1.00
  0.130100D+02  0.196850D-01
  0.196200D+01  0.137977D+00
  0.444600D+00  0.478148D+00
  0.122000D+00  0.501240D+00
   s     1 1.00
  0.122000D+00  0.100000D+01
   p     1 1.00
  0.727000D+00  0.100000D+01
  
 14  0
   s     4 1.00
  0.130100D+02  0.196850D-01
  0.196200D+01  0.137977D+00
  0.444600D+00  0.478148D+00
  0.122000D+00  0.501240D+00
   s     1 1.00
  0.122000D+00  0.100000D+01
   p     1 1.00
  0.727000D+00  0.100000D+01
  
[MO]
 Sym= __1_A'_
 Ene=  0.000000000000000E+000
 Spin= Alpha
 Occup=    2.00000000000000     
                     1  4.219553884717084E-005
                     2  0.998413990967866     
                     3  3.318738038233254E-003
                     4  1.737674545155234E-003
                     5  4.127697868070561E-003
                     6  3.151974041714226E-003
                     7  6.256331578214484E-003
                     8  0.000000000000000E+000
                     9 -4.980744733007382E-004
                    10 -5.069817065875438E-004
                    11  0.000000000000000E+000
                    12 -1.877306766794297E-003
                    13 -1.265976986973957E-003
                    14  0.000000000000000E+000
                    15 -1.513317879431657E-004
                    16  0.000000000000000E+000
                    17  0.000000000000000E+000
                    18 -1.879414404983597E-004
                    19 -4.582731717975389E-005
                    20  2.371203704130826E-004
                    21  0.000000000000000E+000
                    22  0.000000000000000E+000
                    23 -4.219226843244092E-004
                    24  3.389971839574198E-004
                    25  0.000000000000000E+000
                    26 -2.013802694619252E-005
                    27 -6.881806933773338E-005
                    28  0.000000000000000E+000
                    29  0.000000000000000E+000
                    30  2.513036808555107E-005
                    31 -1.404545080586939E-004
                    32 -3.555454372222704E-004
                    33  1.788478506821281E-003
                    34  2.852544593179379E-004
                    35 -4.349256577797148E-004
                    36 -2.830823495111185E-004
                    37 -5.353212351539939E-003
                    38  0.000000000000000E+000
                    39  3.119137697705593E-004
                    40  4.997152303839237E-004
                    41  0.000000000000000E+000
                    42 -1.603747305971205E-003
                    43  5.258537987959243E-003
                    44  0.000000000000000E+000
                    45 -1.557069304789369E-005
                    46  0.000000000000000E+000
                    47  0.000000000000000E+000
                    48 -2.453506985991968E-004
                    49 -1.859385725340670E-005
                    50 -2.971863110333444E-004
                    51  0.000000000000000E+000
                    52  0.000000000000000E+000
                    53  1.296920554643417E-004
                    54  5.027545560744471E-004
                    55  0.000000000000000E+000
                    56 -1.093471986177224E-005
                    57 -4.947720913465575E-005
                    58  0.000000000000000E+000
                    59  0.000000000000000E+000
                    60  5.268105039326374E-005
                    61 -1.344148607350698E-004
                    62 -3.981999906512185E-004
                    63 -1.925495539488636E-003
                    64 -5.780258896711905E-005
                    65  1.612822803118549E-003
                    66 -6.539380255137617E-004
                    67  4.899972616191887E-004
                    68  0.000000000000000E+000
                    69  2.451317216372253E-004
                    70  8.337212155180171E-004
                    71  0.000000000000000E+000
                    72 -1.712783258666110E-003
                    73  7.020576509117113E-004
                    74  0.000000000000000E+000
                    75 -3.331234735642528E-005
                    76  0.000000000000000E+000
                    77  0.000000000000000E+000
                    78 -7.088910811556100E-005
                    79 -1.975594687941068E-005
                    80 -1.035707179904603E-004
                    81  0.000000000000000E+000
                    82  0.000000000000000E+000
                    83 -1.959559026780503E-005
                    84  1.158761198501639E-004
                    85  0.000000000000000E+000
                    86  1.256887713305632E-005
                    87 -4.908975945813530E-005
                    88  0.000000000000000E+000
                    89  0.000000000000000E+000
                    90 -3.575235811558858E-005
                    91 -1.352582878835570E-004
                    92 -1.929076191351140E-004
                    93 -1.355069127120857E-003
                    94  1.758960473755055E-004
                    95  2.023126507585399E-005
                    96  6.559049603205845E-004
                    97  7.766991650003908E-004
                    98  0.000000000000000E+000
                    99  2.861195500255427E-004
                   100  4.045245721649827E-004
                   101  0.000000000000000E+000
                   102  4.777309595848633E-004
                   103 -1.294122930015802E-003
                   104  0.000000000000000E+000
                   105 -3.744108119973129E-006
                   106  0.000000000000000E+000
                   107  0.000000000000000E+000
                   108 -8.661993360661626E-005
                   109 -1.133451894100691E-005
                   110  7.245671431378744E-005
                   111  0.000000000000000E+000
                   112  0.000000000000000E+000
                   113 -7.171580790396878E-005
                   114 -7.546938002871377E-005
                   115  0.000000000000000E+000
                   116 -2.546100632355439E-005
                   117 -2.915609332159898E-005
                   118  0.000000000000000E+000
                   119  0.000000000000000E+000
                   120 -1.396907889276336E-005
                   121 -4.555953834168857E-005
                   122 -2.382605171803018E-004
                   123 -4.504950228735125E-004
                   124  1.646165595135202E-004
                   125  2.439452757598523E-004
                   126 -8.426150148910729E-006
                   127 -5.593835418471664E-004
                   128  0.000000000000000E+000
                   129  1.670052122931990E-004
                   130  6.081338291149502E-004
                   131  0.000000000000000E+000
                   132  4.479325147092470E-004
                   133  1.753275687256214E-003
                   134  0.000000000000000E+000
                   135  1.546987921302865E-005
                   136  0.000000000000000E+000
                   137  0.000000000000000E+000
                   138  3.672925995321280E-005
                   139  3.872912708427092E-008
                   140  1.609308857069231E-004
                   141  0.000000000000000E+000
                   142  0.000000000000000E+000
                   143  3.374889898611810E-004
                   144  2.097614897345068E-004
                   145  0.000000000000000E+000
                   146 -9.501795464120286E-006
                   147 -5.348210295277409E-005
                   148  0.000000000000000E+000
                   149  0.000000000000000E+000
                   150 -5.112378781315830E-006
                   151 -3.979285167050698E-005
                   152 -1.711081770633684E-004
                   153 -2.013977417205447E-004
                   154  6.734929073567036E-005
                   155  2.924472605436684E-004
                   156 -2.736242514188412E-005
                   157 -5.448594035897176E-004
                   158  0.000000000000000E+000
                   159  2.693767386086768E-005
                   160  9.539864854113149E-005
                   161  0.000000000000000E+000
                   162  6.946156796918886E-004
                   163 -7.766918627055451E-005
                   164  0.000000000000000E+000
                   165  4.021421180976318E-007
                   166  0.000000000000000E+000
                   167  0.000000000000000E+000
                   168 -6.664263971178144E-007
                   169  2.826191249677486E-007
                   170  9.832067175155909E-005
                   171  0.000000000000000E+000
                   172  0.000000000000000E+000
                   173  4.532443713527806E-005
                   174 -5.580457210966690E-005
                   175  0.000000000000000E+000
                   176  1.092996924178377E-006
                   177 -1.474150899317865E-005
                   178  0.000000000000000E+000
                   179  0.000000000000000E+000
                   180 -8.118024493499650E-006
                   181 -2.222775962534855E-005
                   182 -1.623302309680693E-004
                   183 -4.662604277025241E-004
                   184  4.111905581332962E-005
                   185  2.344637037189404E-004
                   186 -3.754920978504956E-005
                   187 -4.683571490676696E-005
                   188  0.000000000000000E+000
                   189  2.056798072011128E-004
                   190  6.237744405454954E-005
                   191  0.000000000000000E+000
                   192  1.069915492108160E-003
                   193 -1.346796214202009E-004
                   194  0.000000000000000E+000
                   195 -8.236377697998013E-008
                   196  0.000000000000000E+000
                   197  0.000000000000000E+000
                   198 -1.309993292139419E-005
                   199  1.643293155471829E-006
                   200  1.656217120387953E-006
                   201  0.000000000000000E+000
                   202  0.000000000000000E+000
                   203 -7.920805108267650E-005
                   204 -1.559228620417667E-004
                   205  0.000000000000000E+000
                   206 -7.786604056874769E-006
                   207 -4.876314163898954E-006
                   208  0.000000000000000E+000
                   209  0.000000000000000E+000
                   210  3.006453694760281E-006
                   211 -8.379934990456563E-006
                   212  2.100690584167077E-004
                   213 -1.630990392474628E-004
                   214  2.289505939537851E-004
                   215  1.962772264748257E-004
                   216  0.000000000000000E+000
                   217  2.008076395075450E-003
                   218 -1.681164121154580E-003
                   219 -4.154138324770163E-004
                   220  2.626564537191553E-004
                   221  0.000000000000000E+000
                   222 -4.208798598233532E-004
                   223 -6.634585766853312E-004
                   224 -1.007968105735283E-005
                   225 -4.956460109581036E-005
                   226  0.000000000000000E+000
                   227 -3.653288711523021E-004
                   228 -3.735433616281811E-004
                   229 -1.096365863681635E-005
                   230 -3.344221656514859E-005
                   231  0.000000000000000E+000
                   232 -1.174375524389417E-004
                   233 -4.347403030734550E-004
                   234  3.997294309090904E-007
                   235  3.545656054347658E-006
                   236  0.000000000000000E+000
                   237 -1.644976931226162E-004
                   238 -4.429651113202694E-004
                   239  2.713571428166899E-006
                   240 -9.389421800911691E-007
                   241  0.000000000000000E+000
                   242  1.263149118661635E-005
                   243 -3.536474611513990E-005
                   244  9.445241360903426E-007
                   245  2.338107238072759E-005
                   246  0.000000000000000E+000
 Sym= __2_A'_
 Ene=  0.000000000000000E+000
 Spin= Alpha
 Occup=    2.00000000000000     
                     1 -5.175559438044584E-005
                     2 -3.213761196849044E-004
                     3  2.612151277339341E-003
                     4  1.439551126743963E-004
                     5  1.407799880988583E-003
                     6 -2.584179848121833E-004
                     7  3.240750545958119E-003
                     8  0.000000000000000E+000
                     9 -8.523292880254016E-006
                    10 -9.041152286765633E-005
                    11  0.000000000000000E+000
                    12  9.842093770173035E-006
                    13 -5.112644019511608E-004
                    14  0.000000000000000E+000
                    15  4.054725828801703E-005
                    16  0.000000000000000E+000
                    17  0.000000000000000E+000
                    18 -5.794488489437978E-005
                    19  1.495954297242295E-005
                    20 -1.404080111396858E-004
                    21  0.000000000000000E+000
                    22  0.000000000000000E+000
                    23  2.393513787338326E-004
                    24 -1.173841742179023E-004
                    25  0.000000000000000E+000
                    26 -1.343271570273454E-005
                    27  9.740307517194437E-005
                    28  0.000000000000000E+000
                    29  0.000000000000000E+000
                    30 -5.391202430199482E-005
                    31  1.286486150101495E-004
                    32   1.00100706194459     
                    33  9.393600257980731E-003
                    34  2.692552160253606E-003
                    35 -7.927877246050992E-003
                    36 -3.545931850809560E-005
                    37 -3.737294488837635E-003
                    38  0.000000000000000E+000
                    39 -1.915580425295429E-004
                    40  3.359053208628981E-004
                    41  0.000000000000000E+000
                    42 -9.116319837645050E-005
                    43  4.372759325668493E-003
                    44  0.000000000000000E+000
                    45 -5.765771899997963E-004
                    46  0.000000000000000E+000
                    47  0.000000000000000E+000
                    48 -2.552004161598380E-004
                    49  4.731697409264839E-005
                    50  5.044735447307377E-004
                    51  0.000000000000000E+000
                    52  0.000000000000000E+000
                    53 -7.489323242181304E-004
                    54 -3.476360009098487E-004
                    55  0.000000000000000E+000
                    56  1.257629831649002E-005
                    57  1.054330431898204E-004
                    58  0.000000000000000E+000
                    59  0.000000000000000E+000
                    60 -3.537124028179293E-005
                    61  4.154520956805211E-004
                    62  7.927582707652467E-003
                    63 -2.079561255708518E-003
                    64 -2.341188651699591E-004
                    65  2.723293433381692E-003
                    66  1.319917325911200E-005
                    67  4.881864232510437E-005
                    68  0.000000000000000E+000
                    69  5.410939974264378E-004
                    70  1.182945247493549E-004
                    71  0.000000000000000E+000
                    72 -2.177361711988982E-003
                    73  2.532439566459702E-004
                    74  0.000000000000000E+000
                    75  3.334803823431192E-005
                    76  0.000000000000000E+000
                    77  0.000000000000000E+000
                    78 -5.477368213995068E-006
                    79  1.443743718220567E-006
                    80 -3.976947250564166E-004
                    81  0.000000000000000E+000
                    82  0.000000000000000E+000
                    83 -6.252916808048402E-004
                    84 -2.705454712528482E-004
                    85  0.000000000000000E+000
                    86  2.770710470607822E-005
                    87 -5.623353872364995E-005
                    88  0.000000000000000E+000
                    89  0.000000000000000E+000
                    90  5.066964404682206E-005
                    91  1.524543291133623E-004
                    92  9.138135458768884E-003
                    93 -2.128847732594560E-003
                    94 -3.111028605779798E-004
                    95  3.199107682022661E-003
                    96  6.943258425502832E-005
                    97  4.513970464208901E-005
                    98  0.000000000000000E+000
                    99 -9.128531131012203E-004
                   100  2.289650368980859E-005
                   101  0.000000000000000E+000
                   102  1.883419404984334E-003
                   103  3.652249441168133E-005
                   104  0.000000000000000E+000
                   105  2.208810534286924E-005
                   106  0.000000000000000E+000
                   107  0.000000000000000E+000
                   108 -1.801385596714804E-006
                   109  1.013965514578773E-005
                   110 -4.163145920131683E-004
                   111  0.000000000000000E+000
                   112  0.000000000000000E+000
                   113 -4.155218732357622E-004
                   114  2.887656209377185E-004
                   115  0.000000000000000E+000
                   116 -2.661472031322316E-005
                   117 -6.780163981322368E-005
                   118  0.000000000000000E+000
                   119  0.000000000000000E+000
                   120 -1.632141553684433E-005
                   121  1.381177431994301E-004
                   122 -2.276772289426503E-004
                   123 -7.256179113181805E-004
                   124  2.226706632522152E-004
                   125 -6.827676376534710E-005
                   126  5.234247717660897E-006
                   127 -3.251655933711033E-004
                   128  0.000000000000000E+000
                   129 -8.212649324554302E-005
                   130  5.629864359708291E-004
                   131  0.000000000000000E+000
                   132  3.679629230634011E-004
                   133  9.146148291814762E-004
                   134  0.000000000000000E+000
                   135  1.596723329237685E-005
                   136  0.000000000000000E+000
                   137  0.000000000000000E+000
                   138  1.999392905439032E-006
                   139  4.550791163524177E-005
                   140  1.333273687561239E-004
                   141  0.000000000000000E+000
                   142  0.000000000000000E+000
                   143  2.439447404774024E-004
                   144 -1.198367001436647E-004
                   145  0.000000000000000E+000
                   146  1.011041034279339E-005
                   147 -3.645083445376240E-005
                   148  0.000000000000000E+000
                   149  0.000000000000000E+000
                   150 -4.846501076867452E-005
                   151  3.707749290159367E-005
                   152 -1.618805841943967E-004
                   153 -7.055875230232129E-004
                   154  2.308268367019266E-004
                   155 -3.063117550171942E-005
                   156 -2.445308663692503E-005
                   157 -3.327731868999192E-004
                   158  0.000000000000000E+000
                   159  1.208141265276347E-004
                   160  5.350199962690633E-004