[Molden Format]
[Atoms] AU
  N     1    7    -4.4519150800    0.1645695100   -0.0000004400        
  C     2    6    -1.7695092000   -0.0145096000   -0.0000001700        
  C     3    6    -0.4270927200   -0.0061402300   -2.2691546100        
  C     4    6    -0.4270931100   -0.0061391100    2.2691544900        
  C     5    6     2.1889955900   -0.0004823800   -2.2566388900        
  C     6    6     2.1889952100   -0.0004812700    2.2566392100        
  C     7    6     3.5149715000    0.0022090000    0.0000002700        
  H     8    1    -5.2412522300   -0.7792446300   -1.6754556700        
  H     9    1    -5.1855380900   -0.7126258900    1.5571951400        
  H    10    1    -1.4305344500   -0.0005073500   -4.0318143700        
  H    11    1    -1.4305351200   -0.0005053700    4.0318140800        
  H    12    1     3.1914120400   -0.0010699000   -4.0209976100        
  H    13    1     3.1914113700   -0.0010679200    4.0209980900        
  H    14    1     5.5428332300    0.0050250700    0.0000004400        
[5D]
[7F]
[GTO]
  1  0
   s    12 1.00
  0.114200D+05  0.172695D-04
  0.171200D+04  0.134411D-03
  0.389300D+03  0.694561D-03
  0.110000D+03  0.278531D-02
  0.355700D+02  0.863457D-02
  0.125400D+02  0.199805D-01
  0.464400D+01  0.262908D-01
  0.129300D+01 -0.243845D-01
  0.511800D+00 -0.924934D-01
  0.178700D+00 -0.339683D+00
  0.246240D-01  0.345111D+00
  0.112530D-01  0.752750D+00
   s    10 1.00
  0.114200D+05  0.523000D-03
  0.171200D+04  0.404500D-02
  0.389300D+03  0.207750D-01
  0.110000D+03  0.807269D-01
  0.355700D+02  0.233074D+00
  0.125400D+02  0.433501D+00
  0.464400D+01  0.347472D+00
  0.129300D+01  0.412620D-01
  0.511800D+00 -0.850799D-02
  0.178700D+00  0.238400D-02
   s    10 1.00
  0.114200D+05 -0.115000D-03
  0.171200D+04 -0.895000D-03
  0.389300D+03 -0.462400D-02
  0.110000D+03 -0.185280D-01
  0.355700D+02 -0.573390D-01
  0.125400D+02 -0.132076D+00
  0.464400D+01 -0.172510D+00
  0.129300D+01  0.151814D+00
  0.511800D+00  0.599944D+00
  0.178700D+00  0.387462D+00
   s     1 1.00
  0.129300D+01  0.100000D+01
   s     1 1.00
  0.178700D+00  0.100000D+01
   p     5 1.00
  0.266300D+02  0.146700D-01
  0.594800D+01  0.917640D-01
  0.174200D+01  0.298683D+00
  0.555000D+00  0.498487D+00
  0.172500D+00  0.337023D+00
   p     1 1.00
  0.174200D+01  0.100000D+01
   p     1 1.00
  0.555000D+00  0.100000D+01
   d     1 1.00
  0.165400D+01  0.100000D+01
   d     1 1.00
  0.469000D+00  0.100000D+01
   f     1 1.00
  0.109300D+01  0.100000D+01
  
  2  0
   s    10 1.00
  0.823600D+04  0.531000D-03
  0.123500D+04  0.410800D-02
  0.280800D+03  0.210870D-01
  0.792700D+02  0.818530D-01
  0.255900D+02  0.234817D+00
  0.899700D+01  0.434401D+00
  0.331900D+01  0.346129D+00
  0.905900D+00  0.393780D-01
  0.364300D+00 -0.898300D-02
  0.128500D+00  0.238500D-02
   s    10 1.00
  0.823600D+04 -0.113000D-03
  0.123500D+04 -0.878000D-03
  0.280800D+03 -0.454000D-02
  0.792700D+02 -0.181330D-01
  0.255900D+02 -0.557600D-01
  0.899700D+01 -0.126895D+00
  0.331900D+01 -0.170352D+00
  0.905900D+00  0.140382D+00
  0.364300D+00  0.598684D+00
  0.128500D+00  0.395389D+00
   s     1 1.00
  0.905900D+00  0.100000D+01
   s     1 1.00
  0.364300D+00  0.100000D+01
   p     5 1.00
  0.187100D+02  0.140310D-01
  0.413300D+01  0.868660D-01
  0.120000D+01  0.290216D+00
  0.382700D+00  0.501008D+00
  0.120900D+00  0.343406D+00
   p     1 1.00
  0.382700D+00  0.100000D+01
   p     1 1.00
  0.120900D+00  0.100000D+01
   d     1 1.00
  0.109700D+01  0.100000D+01
   d     1 1.00
  0.318000D+00  0.100000D+01
   f     1 1.00
  0.761000D+00  0.100000D+01
  
  3  0
   s    10 1.00
  0.823600D+04  0.531000D-03
  0.123500D+04  0.410800D-02
  0.280800D+03  0.210870D-01
  0.792700D+02  0.818530D-01
  0.255900D+02  0.234817D+00
  0.899700D+01  0.434401D+00
  0.331900D+01  0.346129D+00
  0.905900D+00  0.393780D-01
  0.364300D+00 -0.898300D-02
  0.128500D+00  0.238500D-02
   s    10 1.00
  0.823600D+04 -0.113000D-03
  0.123500D+04 -0.878000D-03
  0.280800D+03 -0.454000D-02
  0.792700D+02 -0.181330D-01
  0.255900D+02 -0.557600D-01
  0.899700D+01 -0.126895D+00
  0.331900D+01 -0.170352D+00
  0.905900D+00  0.140382D+00
  0.364300D+00  0.598684D+00
  0.128500D+00  0.395389D+00
   s     1 1.00
  0.905900D+00  0.100000D+01
   s     1 1.00
  0.364300D+00  0.100000D+01
   p     5 1.00
  0.187100D+02  0.140310D-01
  0.413300D+01  0.868660D-01
  0.120000D+01  0.290216D+00
  0.382700D+00  0.501008D+00
  0.120900D+00  0.343406D+00
   p     1 1.00
  0.382700D+00  0.100000D+01
   p     1 1.00
  0.120900D+00  0.100000D+01
   d     1 1.00
  0.109700D+01  0.100000D+01
   d     1 1.00
  0.318000D+00  0.100000D+01
   f     1 1.00
  0.761000D+00  0.100000D+01
  
  4  0
   s    10 1.00
  0.823600D+04  0.531000D-03
  0.123500D+04  0.410800D-02
  0.280800D+03  0.210870D-01
  0.792700D+02  0.818530D-01
  0.255900D+02  0.234817D+00
  0.899700D+01  0.434401D+00
  0.331900D+01  0.346129D+00
  0.905900D+00  0.393780D-01
  0.364300D+00 -0.898300D-02
  0.128500D+00  0.238500D-02
   s    10 1.00
  0.823600D+04 -0.113000D-03
  0.123500D+04 -0.878000D-03
  0.280800D+03 -0.454000D-02
  0.792700D+02 -0.181330D-01
  0.255900D+02 -0.557600D-01
  0.899700D+01 -0.126895D+00
  0.331900D+01 -0.170352D+00
  0.905900D+00  0.140382D+00
  0.364300D+00  0.598684D+00
  0.128500D+00  0.395389D+00
   s     1 1.00
  0.905900D+00  0.100000D+01
   s     1 1.00
  0.364300D+00  0.100000D+01
   p     5 1.00
  0.187100D+02  0.140310D-01
  0.413300D+01  0.868660D-01
  0.120000D+01  0.290216D+00
  0.382700D+00  0.501008D+00
  0.120900D+00  0.343406D+00
   p     1 1.00
  0.382700D+00  0.100000D+01
   p     1 1.00
  0.120900D+00  0.100000D+01
   d     1 1.00
  0.109700D+01  0.100000D+01
   d     1 1.00
  0.318000D+00  0.100000D+01
   f     1 1.00
  0.761000D+00  0.100000D+01
  
  5  0
   s    10 1.00
  0.823600D+04  0.531000D-03
  0.123500D+04  0.410800D-02
  0.280800D+03  0.210870D-01
  0.792700D+02  0.818530D-01
  0.255900D+02  0.234817D+00
  0.899700D+01  0.434401D+00
  0.331900D+01  0.346129D+00
  0.905900D+00  0.393780D-01
  0.364300D+00 -0.898300D-02
  0.128500D+00  0.238500D-02
   s    10 1.00
  0.823600D+04 -0.113000D-03
  0.123500D+04 -0.878000D-03
  0.280800D+03 -0.454000D-02
  0.792700D+02 -0.181330D-01
  0.255900D+02 -0.557600D-01
  0.899700D+01 -0.126895D+00
  0.331900D+01 -0.170352D+00
  0.905900D+00  0.140382D+00
  0.364300D+00  0.598684D+00
  0.128500D+00  0.395389D+00
   s     1 1.00
  0.905900D+00  0.100000D+01
   s     1 1.00
  0.364300D+00  0.100000D+01
   p     5 1.00
  0.187100D+02  0.140310D-01
  0.413300D+01  0.868660D-01
  0.120000D+01  0.290216D+00
  0.382700D+00  0.501008D+00
  0.120900D+00  0.343406D+00
   p     1 1.00
  0.382700D+00  0.100000D+01
   p     1 1.00
  0.120900D+00  0.100000D+01
   d     1 1.00
  0.109700D+01  0.100000D+01
   d     1 1.00
  0.318000D+00  0.100000D+01
   f     1 1.00
  0.761000D+00  0.100000D+01
  
  6  0
   s    10 1.00
  0.823600D+04  0.531000D-03
  0.123500D+04  0.410800D-02
  0.280800D+03  0.210870D-01
  0.792700D+02  0.818530D-01
  0.255900D+02  0.234817D+00
  0.899700D+01  0.434401D+00
  0.331900D+01  0.346129D+00
  0.905900D+00  0.393780D-01
  0.364300D+00 -0.898300D-02
  0.128500D+00  0.238500D-02
   s    10 1.00
  0.823600D+04 -0.113000D-03
  0.123500D+04 -0.878000D-03
  0.280800D+03 -0.454000D-02
  0.792700D+02 -0.181330D-01
  0.255900D+02 -0.557600D-01
  0.899700D+01 -0.126895D+00
  0.331900D+01 -0.170352D+00
  0.905900D+00  0.140382D+00
  0.364300D+00  0.598684D+00
  0.128500D+00  0.395389D+00
   s     1 1.00
  0.905900D+00  0.100000D+01
   s     1 1.00
  0.364300D+00  0.100000D+01
   p     5 1.00
  0.187100D+02  0.140310D-01
  0.413300D+01  0.868660D-01
  0.120000D+01  0.290216D+00
  0.382700D+00  0.501008D+00
  0.120900D+00  0.343406D+00
   p     1 1.00
  0.382700D+00  0.100000D+01
   p     1 1.00
  0.120900D+00  0.100000D+01
   d     1 1.00
  0.109700D+01  0.100000D+01
   d     1 1.00
  0.318000D+00  0.100000D+01
   f     1 1.00
  0.761000D+00  0.100000D+01
  
  7  0
   s    10 1.00
  0.823600D+04  0.531000D-03
  0.123500D+04  0.410800D-02
  0.280800D+03  0.210870D-01
  0.792700D+02  0.818530D-01
  0.255900D+02  0.234817D+00
  0.899700D+01  0.434401D+00
  0.331900D+01  0.346129D+00
  0.905900D+00  0.393780D-01
  0.364300D+00 -0.898300D-02
  0.128500D+00  0.238500D-02
   s    10 1.00
  0.823600D+04 -0.113000D-03
  0.123500D+04 -0.878000D-03
  0.280800D+03 -0.454000D-02
  0.792700D+02 -0.181330D-01
  0.255900D+02 -0.557600D-01
  0.899700D+01 -0.126895D+00
  0.331900D+01 -0.170352D+00
  0.905900D+00  0.140382D+00
  0.364300D+00  0.598684D+00
  0.128500D+00  0.395389D+00
   s     1 1.00
  0.905900D+00  0.100000D+01
   s     1 1.00
  0.364300D+00  0.100000D+01
   p     5 1.00
  0.187100D+02  0.140310D-01
  0.413300D+01  0.868660D-01
  0.120000D+01  0.290216D+00
  0.382700D+00  0.501008D+00
  0.120900D+00  0.343406D+00
   p     1 1.00
  0.382700D+00  0.100000D+01
   p     1 1.00
  0.120900D+00  0.100000D+01
   d     1 1.00
  0.109700D+01  0.100000D+01
   d     1 1.00
  0.318000D+00  0.100000D+01
   f     1 1.00
  0.761000D+00  0.100000D+01
  
  8  0
   s     4 1.00
  0.130100D+02  0.196850D-01
  0.196200D+01  0.137977D+00
  0.444600D+00  0.478148D+00
  0.122000D+00  0.501240D+00
   s     1 1.00
  0.122000D+00  0.100000D+01
   p     1 1.00
  0.727000D+00  0.100000D+01
  
  9  0
   s     4 1.00
  0.130100D+02  0.196850D-01
  0.196200D+01  0.137977D+00
  0.444600D+00  0.478148D+00
  0.122000D+00  0.501240D+00
   s     1 1.00
  0.122000D+00  0.100000D+01
   p     1 1.00
  0.727000D+00  0.100000D+01
  
 10  0
   s     4 1.00
  0.130100D+02  0.196850D-01
  0.196200D+01  0.137977D+00
  0.444600D+00  0.478148D+00
  0.122000D+00  0.501240D+00
   s     1 1.00
  0.122000D+00  0.100000D+01
   p     1 1.00
  0.727000D+00  0.100000D+01
  
 11  0
   s     4 1.00
  0.130100D+02  0.196850D-01
  0.196200D+01  0.137977D+00
  0.444600D+00  0.478148D+00
  0.122000D+00  0.501240D+00
   s     1 1.00
  0.122000D+00  0.100000D+01
   p     1 1.00
  0.727000D+00  0.100000D+01
  
 12  0
   s     4 1.00
  0.130100D+02  0.196850D-01
  0.196200D+01  0.137977D+00
  0.444600D+00  0.478148D+00
  0.122000D+00  0.501240D+00
   s     1 1.00
  0.122000D+00  0.100000D+01
   p     1 1.00
  0.727000D+00  0.100000D+01
  
 13  0
   s     4 1.00
  0.130100D+02  0.196850D-01
  0.196200D+01  0.137977D+00
  0.444600D+00  0.478148D+00
  0.122000D+00  0.501240D+00
   s     1 1.00
  0.122000D+00  0.100000D+01
   p     1 1.00
  0.727000D+00  0.100000D+01
  
 14  0
   s     4 1.00
  0.130100D+02  0.196850D-01
  0.196200D+01  0.137977D+00
  0.444600D+00  0.478148D+00
  0.122000D+00  0.501240D+00
   s     1 1.00
  0.122000D+00  0.100000D+01
   p     1 1.00
  0.727000D+00  0.100000D+01
  
[MO]
 Sym= __1_a__
 Ene=  0.000000000000000E+000
 Spin= Alpha
 Occup=    2.00000000000000     
                     1  2.097248905545850E-004
                     2  0.998185749515142     
                     3  3.540501546548490E-003
                     4  1.805912322641130E-003
                     5  5.524934663338440E-003
                     6  5.546388818322030E-003
                     7 -4.770130814693540E-003
                     8  1.312255104305050E-004
                     9 -7.512150809115640E-004
                    10  2.830601172112140E-004
                    11  2.966796864385760E-005
                    12 -1.417197779428190E-003
                    13  3.139803528320850E-003
                    14 -2.882039665606200E-005
                    15 -2.942838016853786E-005
                    16 -2.333504117795680E-005
                    17 -3.460284114926950E-005
                    18  8.144309003523480E-005
                    19  4.782025126294100E-005
                    20 -3.868004702671588E-004
                    21 -7.280368347691720E-006
                    22 -2.014650588425200E-005
                    23  4.618728234944500E-005
                    24 -4.873526772653010E-004
                    25 -2.924959125599327E-006
                    26 -1.247626335565538E-004
                    27 -4.581500365604704E-005
                    28 -9.472746949591440E-006
                    29  1.978820923604640E-005
                    30 -8.897885529375504E-005
                    31 -5.842927841611784E-005
                    32 -3.909170628377900E-004
                    33  8.904322063959450E-004
                    34  2.391893330981730E-004
                    35 -1.023019041973800E-004
                    36 -4.314657905144880E-003
                    37 -2.054603697276950E-005
                    38 -2.498351840119560E-005
                    39  1.720067513015380E-004
                    40 -1.008821095684720E-005
                    41  1.343878686590070E-005
                    42  4.900128501118900E-003
                    43  7.911966951403210E-004
                    44 -3.349474025732010E-005
                    45 -2.214279349803156E-004
                    46 -5.657313651263020E-006
                    47 -4.483090366063390E-007
                    48  2.023546400115380E-004
                    49  4.684537131984040E-005
                    50  4.422385180887551E-004
                    51  1.860094585465130E-005
                    52  6.114092174112040E-006
                    53 -3.536858930149860E-005
                    54 -3.563793694842560E-004
                    55  4.319998849310998E-006
                    56 -5.963032346279683E-005
                    57  9.304383582293381E-006
                    58  5.706692659196680E-006
                    59 -2.075124247763930E-007
                    60 -3.303556261617726E-005
                    61  3.886809499401937E-005
                    62 -3.561486358190900E-004
                    63 -1.753507740573730E-003
                    64  9.217392213245170E-005
                    65  8.594499350235610E-004
                    66  5.489395903317220E-004
                    67 -9.952318441403820E-005
                    68 -5.682022722762839E-004
                    69  5.860895310967530E-004
                    70  8.637256905579030E-005
                    71  1.236548998860850E-004
                    72 -4.313545828167950E-004
                    73 -3.550243941392730E-004
                    74 -8.606955730660200E-004
                    75 -7.121178397389645E-005
                    76 -1.299158910675960E-005
                    77  1.856746044226780E-005
                    78  6.196207752706800E-005
                    79 -9.500895166319101E-006
                    80  1.785869918796222E-004
                    81  1.699588647164740E-004
                    82 -2.721699318910870E-005
                    83 -1.184762633196536E-004
                    84  5.105883584477120E-005
                    85 -1.029207698448821E-005
                    86 -5.676073887748891E-005
                    87  2.116136612247707E-005
                    88 -1.279013924944516E-005
                    89  1.216277055473000E-005
                    90 -4.702343546199422E-005
                    91 -1.104130444191359E-005
                    92 -3.642696379629520E-004
                    93 -1.811912091401610E-003
                    94  9.857785171410400E-005
                    95  8.445138744159180E-004
                    96  5.791556254839930E-004
                    97 -9.769431004804920E-005
                    98  5.883523891700730E-004
                    99  5.953834015086350E-004
                   100  8.262128607163980E-005
                   101 -9.890130025002290E-005
                   102 -5.380532911164440E-004
                   103 -3.610277913643560E-004
                   104  7.915709728805600E-004
                   105 -7.490584398996879E-005
                   106  1.096371581700080E-005
                   107 -1.882311525793510E-005
                   108  6.160179493590280E-005
                   109 -1.008099076397240E-005
                   110  1.678069651216639E-004
                   111 -1.633732368062330E-004
                   112  3.107026644565780E-005
                   113 -1.072514493987492E-004
                   114  5.759849401504880E-005
                   115  6.783662548796525E-006
                   116 -5.710786914630565E-005
                   117  2.075134307039215E-005
                   118  1.011499431034172E-005
                   119 -1.318338798667600E-005
                   120 -4.599821699477589E-005
                   121 -1.116607573780096E-005
                   122 -1.899332131613930E-004
                   123 -3.232824612341030E-004
                   124  5.224172759902260E-005
                   125  5.569379957981770E-004
                   126 -5.276614489095700E-004
                   127 -4.109870437810920E-005
                   128  2.075903610862740E-005
                   129  2.237212014016670E-004
                   130 -2.459394945946950E-005
                   131  1.994001449949940E-005
                   132  8.909858858807430E-004
                   133  1.577260014664120E-004
                   134 -2.435346116649930E-004
                   135  4.866365136270702E-006
                   136 -6.907713946544980E-007
                   137 -4.019805273516790E-006
                   138  1.019018380617404E-007
                   139  9.441583344969980E-006
                   140  7.882865474695094E-005
                   141  1.884002348066220E-004
                   142  8.201742890415381E-006
                   143 -1.854200642331208E-004
                   144 -1.653093911456560E-005
                   145 -1.066724385314153E-005
                   146 -1.458638253354810E-005
                   147  2.487068561531181E-006
                   148 -3.180636139347820E-006
                   149 -2.100474930450740E-006
                   150 -4.490366338977681E-005
                   151 -1.576900328072081E-006
                   152 -1.888559749074490E-004
                   153 -3.102824150447970E-004
                   154  5.551730977070900E-005
                   155  5.362755397743700E-004
                   156 -5.382388323445760E-004
                   157 -4.049163328604600E-005
                   158 -2.210672018821650E-005
                   159  2.242186348995660E-004
                   160 -2.621091003958660E-005
                   161 -1.783765719884890E-005
                   162  8.039087897649660E-004
                   163  1.590320409194540E-004
                   164  3.039061497250760E-004
                   165  5.072271743689698E-006
                   166 -7.605100040719200E-008
                   167  4.158770218071320E-006
                   168 -1.829498023088934E-007
                   169  9.403234544567290E-006
                   170  7.332257274332706E-005
                   171 -1.816534245278360E-004
                   172 -9.665210862059270E-006
                   173 -1.861294872137928E-004
                   174 -1.411400282348580E-005
                   175  1.053834515054281E-005
                   176 -1.587076317568865E-005
                   177  2.713364529054487E-006
                   178  3.496722106297980E-006
                   179  1.931862373370710E-006
                   180 -4.471242058630635E-005
                   181 -1.902422030979071E-006
                   182 -1.245851656203970E-004
                   183 -3.848272352423340E-004
                   184  2.799188266742000E-005
                   185  1.526393397110610E-004
                   186 -1.866803053811490E-005
                   187 -4.993739872965530E-005
                   188 -7.738103231555380E-007
                   189  9.719139583460249E-005
                   190  2.226345498515600E-005
                   191  7.315084337938740E-006
                   192 -3.683002477946700E-004
                   193 -1.102881825330530E-004
                   194  5.134120458243640E-005
                   195 -9.944230644724263E-006
                   196 -3.460538037618250E-007
                   197  6.533667439099910E-008
                   198  4.032436173903220E-006
                   199 -2.317577358067770E-006
                   200 -1.123474282244902E-004
                   201 -4.274791977550050E-006
                   202 -1.109213046055570E-006
                   203  6.074759905879220E-005
                   204  1.771616912079320E-005
                   205 -1.171885330131247E-007
                   206  1.596982214292575E-006
                   207  3.210676288205991E-006
                   208  2.950612730345300E-007
                   209  1.476263918398310E-007
                   210 -5.741724551464339E-006
                   211 -2.785727386094952E-006
                   212  2.159797770319600E-003
                   213 -1.756086801343380E-003
                   214  1.839498096267320E-004
                   215  2.978581490154880E-004
                   216  3.612398830021660E-004
                   217  2.645907378094120E-003
                   218 -2.147197884449550E-003
                   219  1.837065655728540E-004
                   220  2.994606239482210E-004
                   221 -3.535119767506860E-004
                   222 -4.726281084512290E-004
                   223 -3.518945766277790E-004
                   224 -6.050474139894100E-005
                   225  9.959585200970170E-006
                   226  3.859548580015730E-005
                   227 -4.815025326192640E-004
                   228 -3.208213397595740E-004
                   229 -5.935464560533240E-005
                   230  9.926426360589340E-006
                   231 -3.860854793051110E-005
                   232 -1.099112978671480E-004
                   233 -4.691878331380850E-004
                   234  4.685684950804430E-006
                   235 -1.810746815564870E-006
                   236 -9.086112505184360E-006
                   237 -1.133629779472040E-004
                   238 -4.737296274459140E-004
                   239  3.769339687638860E-006
                   240 -1.679416793496140E-006
                   241  8.131998825142000E-006
                   242  1.575003687872490E-005
                   243  1.150721096634720E-004
                   244  2.981235596655890E-005
                   245  1.693833891792590E-006
                   246 -2.363561707673960E-007
 Sym= __2_a__
 Ene=  0.000000000000000E+000
 Spin= Alpha
 Occup=    2.00000000000000     
                     1 -2.332878327339490E-005
                     2 -8.693273629623861E-005
                     3  2.067760595579470E-003
                     4 -1.274417649318560E-005
                     5  1.232049279029290E-003
                     6  1.988039214699360E-003
                     7  2.762093170880950E-004
                     8 -3.322048748031740E-005
                     9 -1.459702909379360E-004
                    10  9.774698590827841E-005
                    11 -2.345324249228440E-006
                    12  2.252775527085180E-005
                    13  3.617407283729850E-005
                    14 -4.442716699465300E-006
                    15 -7.332289389874985E-005
                    16 -3.478193756432310E-007
                    17 -1.059253322009010E-007
                    18  4.050372745625000E-005
                    19 -3.733748445468580E-006
                    20  1.802109886583944E-004
                    21  1.105492086391320E-005
                    22  7.138248685435180E-006
                    23  9.720772362089520E-005
                    24 -3.287825275378860E-005
                    25 -2.803148426024753E-006
                    26  1.392540004451976E-004
                    27 -5.702677031792377E-005
                    28 -5.713812298726720E-007
                    29 -3.128520136723140E-006
                    30  1.268129627780252E-004
                    31  3.480288881107678E-005
                    32   1.00096880777624     
                    33  8.798560379741071E-003
                    34  2.777496831559760E-003
                    35 -8.213563434955690E-003
                    36 -2.647502947477490E-003
                    37  6.983952457770630E-004
                    38  7.340376454935220E-006
                    39  1.083502489279090E-003
                    40 -2.324867646589450E-004
                    41 -6.899748252239050E-006
                    42  3.489391835017440E-003
                    43 -1.294669164463410E-004
                    44  5.699514894164490E-006
                    45  2.940656944970873E-004
                    46 -1.482331237581910E-006
                    47  5.725060582011110E-007
                    48  4.222244185217180E-004
                    49 -2.577177670555180E-005
                    50 -1.049042444556139E-003
                    51  7.855470521030570E-006
                    52 -2.919309443069920E-006
                    53 -1.062001034971076E-004
                    54  3.595770677698870E-005
                    55  2.686634999301581E-007
                    56  3.140115577715294E-004
                    57 -8.462923547944495E-006
                    58 -3.013471401534460E-007
                    59 -1.383969921116350E-007
                    60  8.453334541878811E-005
                    61  1.834936884292313E-005
                    62  1.239403345152490E-002
                    63 -1.874455839303460E-003
                    64 -3.125598301823720E-004
                    65  3.156091831324320E-003
                    66 -1.370001207377320E-004
                    67  1.220219382176560E-004
                    68  2.487411381949490E-004
                    69  2.971619832678190E-005
                    70  7.156886694009850E-007
                    71  5.246729499487290E-004
                    72  1.490307481826370E-004
                    73 -3.310533478437380E-005
                    74 -1.839630330472540E-003
                    75 -1.112155976987745E-005
                    76  2.455570243466110E-005
                    77  8.596203843684830E-006
                    78 -3.541725309972440E-005
                    79 -4.835084760342460E-006
                    80 -4.172249609824420E-004
                    81 -4.672244132536290E-004
                    82 -9.233222614376770E-007
                    83  7.596255358163600E-004
                    84 -1.492955422390160E-006
                    85  5.087791833992282E-005
                    86  1.076896472836820E-004
                    87  3.495660102180319E-007
                    88 -1.659118691407616E-005
                    89 -6.656297841726680E-006
                    90 -2.989805098727607E-005
                    91  5.017135806926751E-006
                    92  1.251274156288160E-002
                    93 -1.874693947511470E-003
                    94 -3.118337249401400E-004
                    95  3.150729930890060E-003
                    96 -1.361561750118260E-004
                    97  1.211461300845360E-004
                    98 -2.479083665717240E-004
                    99  2.720276488127940E-005
                   100  3.082722705193260E-006
                   101 -5.202224810310440E-004
                   102  1.596645732397340E-004
                   103 -3.174571568467250E-005
                   104  1.845787199134940E-003
                   105 -1.090303681375304E-005
                   106 -2.477421259852510E-005
                   107 -8.496853418389169E-006
                   108 -3.561044997415320E-005
                   109 -4.747140496475430E-006
                   110 -4.211582478851733E-004
                   111  4.683871323494720E-004
                   112 -9.695705745940140E-007
                   113  7.619176226292100E-004
                   114 -3.534067803591670E-006
                   115 -5.129128871571381E-005
                   116  1.081679882771372E-004
                   117  5.480125962739521E-007
                   118  1.615788779504066E-005
                   119  7.145863782339590E-006
                   120 -2.954930363621439E-005
                   121  5.134089929244248E-006
                   122 -1.467042897247990E-004
                   123 -7.087915550029190E-004
                   124  2.528926067807490E-004
                   125 -3.225677130903060E-004
                   126 -1.982223374575400E-004
                   127  2.145990265024420E-005
                   128 -4.210598680096000E-005
                   129  6.012873273214580E-004
                   130 -1.495724384504910E-006
                   131  3.930620424038500E-005
                   132  5.743436311442120E-004
                   133  3.381747875933500E-006
                   134  3.385815856916340E-004
                   135 -4.227027587547389E-008
                   136  4.201340467252610E-005
                   137  1.406896996008460E-007
                   138 -3.396142883143020E-005
                   139 -1.508653517501700E-006
                   140  1.938522473696954E-004
                   141 -2.609916402684180E-004
                   142  1.778521189277990E-006
                   143 -2.660092887305800E-004
                   144 -4.248108641612710E-006
                   145 -1.791019102249200E-005
                   146  1.324081132070127E-005
                   147  1.457323185030051E-007
                   148 -1.305013736230688E-005
                   149 -1.985230822724520E-006
                   150 -2.585812700581952E-005
                   151 -5.932366419269300E-007
                   152 -1.441211167194990E-004
                   153 -7.098307991344030E-004
                   154  2.523748758452250E-004
                   155 -3.217058686492060E-004
                   156 -1.975818201977860E-004
                   157  2.144264465178810E-005
                   158  4.218522449427530E-005
                   159  6.014276331896800E-004
                   160 -1.235008478352400E-006