[Molden Format]
[Atoms] AU
  N     1    7    -0.0019210300   -0.0008626500   -4.2922019300        
  C     2    6    -0.0010168500   -0.0007981700   -1.7769180200        
  C     3    6     0.0137947800   -2.3393644700   -0.4113520700        
  C     4    6    -0.0148467400    2.3378381200   -0.4114616500        
  C     5    6     0.0230600100   -2.3003621100    2.1639482400        
  C     6    6    -0.0222605400    2.2989677800    2.1638466400        
  C     7    6     0.0008710500   -0.0006635600    3.4750833500        
  H     8    1    -0.2275707000   -1.6389129000   -5.3113271800        
  H     9    1     0.2229958600    1.6371353700   -5.3115731200        
  H    10    1     0.0361296600   -4.0746748300   -1.4452516200        
  H    11    1    -0.0379249300    4.0730954800   -1.4454338400        
  H    12    1     0.0494041900   -4.0422886000    3.1965321300        
  H    13    1    -0.0478624100    4.0409472000    3.1963599000        
  H    14    1     0.0015995100   -0.0006116200    5.5016390800        
[5D]
[7F]
[GTO]
  1  0
   s    12 1.00
  0.114200D+05  0.172695D-04
  0.171200D+04  0.134411D-03
  0.389300D+03  0.694561D-03
  0.110000D+03  0.278531D-02
  0.355700D+02  0.863457D-02
  0.125400D+02  0.199805D-01
  0.464400D+01  0.262908D-01
  0.129300D+01 -0.243845D-01
  0.511800D+00 -0.924934D-01
  0.178700D+00 -0.339683D+00
  0.246240D-01  0.345111D+00
  0.112530D-01  0.752750D+00
   s    10 1.00
  0.114200D+05  0.523000D-03
  0.171200D+04  0.404500D-02
  0.389300D+03  0.207750D-01
  0.110000D+03  0.807269D-01
  0.355700D+02  0.233074D+00
  0.125400D+02  0.433501D+00
  0.464400D+01  0.347472D+00
  0.129300D+01  0.412620D-01
  0.511800D+00 -0.850799D-02
  0.178700D+00  0.238400D-02
   s    10 1.00
  0.114200D+05 -0.115000D-03
  0.171200D+04 -0.895000D-03
  0.389300D+03 -0.462400D-02
  0.110000D+03 -0.185280D-01
  0.355700D+02 -0.573390D-01
  0.125400D+02 -0.132076D+00
  0.464400D+01 -0.172510D+00
  0.129300D+01  0.151814D+00
  0.511800D+00  0.599944D+00
  0.178700D+00  0.387462D+00
   s     1 1.00
  0.129300D+01  0.100000D+01
   s     1 1.00
  0.178700D+00  0.100000D+01
   p     5 1.00
  0.266300D+02  0.146700D-01
  0.594800D+01  0.917640D-01
  0.174200D+01  0.298683D+00
  0.555000D+00  0.498487D+00
  0.172500D+00  0.337023D+00
   p     1 1.00
  0.174200D+01  0.100000D+01
   p     1 1.00
  0.555000D+00  0.100000D+01
   d     1 1.00
  0.165400D+01  0.100000D+01
   d     1 1.00
  0.469000D+00  0.100000D+01
   f     1 1.00
  0.109300D+01  0.100000D+01
  
  2  0
   s    10 1.00
  0.823600D+04  0.531000D-03
  0.123500D+04  0.410800D-02
  0.280800D+03  0.210870D-01
  0.792700D+02  0.818530D-01
  0.255900D+02  0.234817D+00
  0.899700D+01  0.434401D+00
  0.331900D+01  0.346129D+00
  0.905900D+00  0.393780D-01
  0.364300D+00 -0.898300D-02
  0.128500D+00  0.238500D-02
   s    10 1.00
  0.823600D+04 -0.113000D-03
  0.123500D+04 -0.878000D-03
  0.280800D+03 -0.454000D-02
  0.792700D+02 -0.181330D-01
  0.255900D+02 -0.557600D-01
  0.899700D+01 -0.126895D+00
  0.331900D+01 -0.170352D+00
  0.905900D+00  0.140382D+00
  0.364300D+00  0.598684D+00
  0.128500D+00  0.395389D+00
   s     1 1.00
  0.905900D+00  0.100000D+01
   s     1 1.00
  0.364300D+00  0.100000D+01
   p     5 1.00
  0.187100D+02  0.140310D-01
  0.413300D+01  0.868660D-01
  0.120000D+01  0.290216D+00
  0.382700D+00  0.501008D+00
  0.120900D+00  0.343406D+00
   p     1 1.00
  0.382700D+00  0.100000D+01
   p     1 1.00
  0.120900D+00  0.100000D+01
   d     1 1.00
  0.109700D+01  0.100000D+01
   d     1 1.00
  0.318000D+00  0.100000D+01
   f     1 1.00
  0.761000D+00  0.100000D+01
  
  3  0
   s    10 1.00
  0.823600D+04  0.531000D-03
  0.123500D+04  0.410800D-02
  0.280800D+03  0.210870D-01
  0.792700D+02  0.818530D-01
  0.255900D+02  0.234817D+00
  0.899700D+01  0.434401D+00
  0.331900D+01  0.346129D+00
  0.905900D+00  0.393780D-01
  0.364300D+00 -0.898300D-02
  0.128500D+00  0.238500D-02
   s    10 1.00
  0.823600D+04 -0.113000D-03
  0.123500D+04 -0.878000D-03
  0.280800D+03 -0.454000D-02
  0.792700D+02 -0.181330D-01
  0.255900D+02 -0.557600D-01
  0.899700D+01 -0.126895D+00
  0.331900D+01 -0.170352D+00
  0.905900D+00  0.140382D+00
  0.364300D+00  0.598684D+00
  0.128500D+00  0.395389D+00
   s     1 1.00
  0.905900D+00  0.100000D+01
   s     1 1.00
  0.364300D+00  0.100000D+01
   p     5 1.00
  0.187100D+02  0.140310D-01
  0.413300D+01  0.868660D-01
  0.120000D+01  0.290216D+00
  0.382700D+00  0.501008D+00
  0.120900D+00  0.343406D+00
   p     1 1.00
  0.382700D+00  0.100000D+01
   p     1 1.00
  0.120900D+00  0.100000D+01
   d     1 1.00
  0.109700D+01  0.100000D+01
   d     1 1.00
  0.318000D+00  0.100000D+01
   f     1 1.00
  0.761000D+00  0.100000D+01
  
  4  0
   s    10 1.00
  0.823600D+04  0.531000D-03
  0.123500D+04  0.410800D-02
  0.280800D+03  0.210870D-01
  0.792700D+02  0.818530D-01
  0.255900D+02  0.234817D+00
  0.899700D+01  0.434401D+00
  0.331900D+01  0.346129D+00
  0.905900D+00  0.393780D-01
  0.364300D+00 -0.898300D-02
  0.128500D+00  0.238500D-02
   s    10 1.00
  0.823600D+04 -0.113000D-03
  0.123500D+04 -0.878000D-03
  0.280800D+03 -0.454000D-02
  0.792700D+02 -0.181330D-01
  0.255900D+02 -0.557600D-01
  0.899700D+01 -0.126895D+00
  0.331900D+01 -0.170352D+00
  0.905900D+00  0.140382D+00
  0.364300D+00  0.598684D+00
  0.128500D+00  0.395389D+00
   s     1 1.00
  0.905900D+00  0.100000D+01
   s     1 1.00
  0.364300D+00  0.100000D+01
   p     5 1.00
  0.187100D+02  0.140310D-01
  0.413300D+01  0.868660D-01
  0.120000D+01  0.290216D+00
  0.382700D+00  0.501008D+00
  0.120900D+00  0.343406D+00
   p     1 1.00
  0.382700D+00  0.100000D+01
   p     1 1.00
  0.120900D+00  0.100000D+01
   d     1 1.00
  0.109700D+01  0.100000D+01
   d     1 1.00
  0.318000D+00  0.100000D+01
   f     1 1.00
  0.761000D+00  0.100000D+01
  
  5  0
   s    10 1.00
  0.823600D+04  0.531000D-03
  0.123500D+04  0.410800D-02
  0.280800D+03  0.210870D-01
  0.792700D+02  0.818530D-01
  0.255900D+02  0.234817D+00
  0.899700D+01  0.434401D+00
  0.331900D+01  0.346129D+00
  0.905900D+00  0.393780D-01
  0.364300D+00 -0.898300D-02
  0.128500D+00  0.238500D-02
   s    10 1.00
  0.823600D+04 -0.113000D-03
  0.123500D+04 -0.878000D-03
  0.280800D+03 -0.454000D-02
  0.792700D+02 -0.181330D-01
  0.255900D+02 -0.557600D-01
  0.899700D+01 -0.126895D+00
  0.331900D+01 -0.170352D+00
  0.905900D+00  0.140382D+00
  0.364300D+00  0.598684D+00
  0.128500D+00  0.395389D+00
   s     1 1.00
  0.905900D+00  0.100000D+01
   s     1 1.00
  0.364300D+00  0.100000D+01
   p     5 1.00
  0.187100D+02  0.140310D-01
  0.413300D+01  0.868660D-01
  0.120000D+01  0.290216D+00
  0.382700D+00  0.501008D+00
  0.120900D+00  0.343406D+00
   p     1 1.00
  0.382700D+00  0.100000D+01
   p     1 1.00
  0.120900D+00  0.100000D+01
   d     1 1.00
  0.109700D+01  0.100000D+01
   d     1 1.00
  0.318000D+00  0.100000D+01
   f     1 1.00
  0.761000D+00  0.100000D+01
  
  6  0
   s    10 1.00
  0.823600D+04  0.531000D-03
  0.123500D+04  0.410800D-02
  0.280800D+03  0.210870D-01
  0.792700D+02  0.818530D-01
  0.255900D+02  0.234817D+00
  0.899700D+01  0.434401D+00
  0.331900D+01  0.346129D+00
  0.905900D+00  0.393780D-01
  0.364300D+00 -0.898300D-02
  0.128500D+00  0.238500D-02
   s    10 1.00
  0.823600D+04 -0.113000D-03
  0.123500D+04 -0.878000D-03
  0.280800D+03 -0.454000D-02
  0.792700D+02 -0.181330D-01
  0.255900D+02 -0.557600D-01
  0.899700D+01 -0.126895D+00
  0.331900D+01 -0.170352D+00
  0.905900D+00  0.140382D+00
  0.364300D+00  0.598684D+00
  0.128500D+00  0.395389D+00
   s     1 1.00
  0.905900D+00  0.100000D+01
   s     1 1.00
  0.364300D+00  0.100000D+01
   p     5 1.00
  0.187100D+02  0.140310D-01
  0.413300D+01  0.868660D-01
  0.120000D+01  0.290216D+00
  0.382700D+00  0.501008D+00
  0.120900D+00  0.343406D+00
   p     1 1.00
  0.382700D+00  0.100000D+01
   p     1 1.00
  0.120900D+00  0.100000D+01
   d     1 1.00
  0.109700D+01  0.100000D+01
   d     1 1.00
  0.318000D+00  0.100000D+01
   f     1 1.00
  0.761000D+00  0.100000D+01
  
  7  0
   s    10 1.00
  0.823600D+04  0.531000D-03
  0.123500D+04  0.410800D-02
  0.280800D+03  0.210870D-01
  0.792700D+02  0.818530D-01
  0.255900D+02  0.234817D+00
  0.899700D+01  0.434401D+00
  0.331900D+01  0.346129D+00
  0.905900D+00  0.393780D-01
  0.364300D+00 -0.898300D-02
  0.128500D+00  0.238500D-02
   s    10 1.00
  0.823600D+04 -0.113000D-03
  0.123500D+04 -0.878000D-03
  0.280800D+03 -0.454000D-02
  0.792700D+02 -0.181330D-01
  0.255900D+02 -0.557600D-01
  0.899700D+01 -0.126895D+00
  0.331900D+01 -0.170352D+00
  0.905900D+00  0.140382D+00
  0.364300D+00  0.598684D+00
  0.128500D+00  0.395389D+00
   s     1 1.00
  0.905900D+00  0.100000D+01
   s     1 1.00
  0.364300D+00  0.100000D+01
   p     5 1.00
  0.187100D+02  0.140310D-01
  0.413300D+01  0.868660D-01
  0.120000D+01  0.290216D+00
  0.382700D+00  0.501008D+00
  0.120900D+00  0.343406D+00
   p     1 1.00
  0.382700D+00  0.100000D+01
   p     1 1.00
  0.120900D+00  0.100000D+01
   d     1 1.00
  0.109700D+01  0.100000D+01
   d     1 1.00
  0.318000D+00  0.100000D+01
   f     1 1.00
  0.761000D+00  0.100000D+01
  
  8  0
   s     4 1.00
  0.130100D+02  0.196850D-01
  0.196200D+01  0.137977D+00
  0.444600D+00  0.478148D+00
  0.122000D+00  0.501240D+00
   s     1 1.00
  0.122000D+00  0.100000D+01
   p     1 1.00
  0.727000D+00  0.100000D+01
  
  9  0
   s     4 1.00
  0.130100D+02  0.196850D-01
  0.196200D+01  0.137977D+00
  0.444600D+00  0.478148D+00
  0.122000D+00  0.501240D+00
   s     1 1.00
  0.122000D+00  0.100000D+01
   p     1 1.00
  0.727000D+00  0.100000D+01
  
 10  0
   s     4 1.00
  0.130100D+02  0.196850D-01
  0.196200D+01  0.137977D+00
  0.444600D+00  0.478148D+00
  0.122000D+00  0.501240D+00
   s     1 1.00
  0.122000D+00  0.100000D+01
   p     1 1.00
  0.727000D+00  0.100000D+01
  
 11  0
   s     4 1.00
  0.130100D+02  0.196850D-01
  0.196200D+01  0.137977D+00
  0.444600D+00  0.478148D+00
  0.122000D+00  0.501240D+00
   s     1 1.00
  0.122000D+00  0.100000D+01
   p     1 1.00
  0.727000D+00  0.100000D+01
  
 12  0
   s     4 1.00
  0.130100D+02  0.196850D-01
  0.196200D+01  0.137977D+00
  0.444600D+00  0.478148D+00
  0.122000D+00  0.501240D+00
   s     1 1.00
  0.122000D+00  0.100000D+01
   p     1 1.00
  0.727000D+00  0.100000D+01
  
 13  0
   s     4 1.00
  0.130100D+02  0.196850D-01
  0.196200D+01  0.137977D+00
  0.444600D+00  0.478148D+00
  0.122000D+00  0.501240D+00
   s     1 1.00
  0.122000D+00  0.100000D+01
   p     1 1.00
  0.727000D+00  0.100000D+01
  
 14  0
   s     4 1.00
  0.130100D+02  0.196850D-01
  0.196200D+01  0.137977D+00
  0.444600D+00  0.478148D+00
  0.122000D+00  0.501240D+00
   s     1 1.00
  0.122000D+00  0.100000D+01
   p     1 1.00
  0.727000D+00  0.100000D+01
  
[MO]
 Sym= __1_A__
 Ene=  0.000000000000000E+000
 Spin= Alpha
 Occup=    2.00000000000000     
                     1  4.198616847284824E-005
                     2  0.998067590739521     
                     3  9.245471357101864E-003
                     4  2.062854645866354E-003
                     5  1.538009537409929E-003
                     6  1.611027480497764E-006
                     7  1.033603090051332E-007
                     8  4.480295201705315E-003
                     9 -4.497178403802623E-008
                    10  7.956981123460632E-009
                    11 -1.215408909480742E-004
                    12 -3.479665560099269E-008
                    13 -3.477910325558149E-008
                    14 -9.255995859035901E-005
                    15  2.671738754716416E-004
                    16  2.068919119722165E-007
                    17  6.782768900481477E-010
                    18 -1.139815731762882E-004
                    19  2.452818113888989E-005
                    20  1.617311489504139E-004
                    21 -9.913916406258710E-008
                    22  4.489600466184417E-008
                    23  5.624907977969978E-004
                    24 -1.352735016919889E-004
                    25 -1.894239321848979E-004
                    26  1.166540123836943E-007
                    27  2.505575893937565E-008
                    28  8.973711000408407E-005
                    29 -1.434617658148551E-005
                    30 -3.982490228813724E-008
                    31 -4.764413011365304E-009
                    32 -3.658038152561349E-004
                    33  2.715860326587011E-003
                    34  1.461114310499558E-004
                    35 -2.529665170400806E-004
                    36 -2.553829918226679E-006
                    37 -1.636511162202563E-007
                    38 -7.092225937322123E-003
                    39  1.383351000498334E-007
                    40 -4.055268190244269E-008
                    41  3.758134857124296E-004
                    42  1.582336462498068E-006
                    43  1.511988369180355E-007
                    44  4.403705622129018E-003
                    45  3.488988428082955E-004
                    46  1.679527218815326E-007
                    47  3.027031573603707E-008
                    48  1.374189913787330E-004
                    49 -4.233237403436483E-006
                    50  5.913528822101767E-005
                    51  1.973164815068041E-007
                    52 -1.640370788222312E-007
                    53 -4.468110955264758E-004
                    54  3.500624256733361E-005
                    55 -1.108642221442164E-004
                    56  5.412823043376245E-008
                    57  1.159134090257610E-008
                    58  7.724476273422521E-005
                    59 -6.863923547667332E-006
                    60 -3.412503642560443E-008
                    61 -4.304479418342112E-009
                    62 -2.110394030821447E-004
                    63 -1.679301767584015E-003
                    64  5.847897129018357E-005
                    65  5.621654819636585E-004
                    66 -8.031461580608836E-006
                    67 -8.406651821304176E-004
                    68  1.014465740410401E-003
                    69  1.738399426680878E-005
                    70 -3.235775536354069E-005
                    71  6.142076072878483E-004
                    72  9.020080641696695E-006
                    73 -5.704873048237809E-004
                    74 -1.354143979584086E-004
                    75  9.228457367819506E-005
                    76  1.003275143613993E-006
                    77 -8.603443385106291E-006
                    78  4.159266651918398E-005
                    79 -1.699948259209327E-007
                    80 -2.164933011295422E-005
                    81 -1.270286955685920E-005
                    82  2.069020151151106E-004
                    83 -2.957585767050776E-005
                    84  1.025690229949770E-005
                    85 -9.307916350549715E-005
                    86  1.252597096774178E-006
                    87 -2.919021476042871E-005
                    88  2.012599345236804E-005
                    89 -2.504097592930804E-006
                    90  6.124347046955427E-007
                    91  1.307075436878385E-005
                    92 -2.110031533355527E-004
                    93 -1.679155829492228E-003
                    94  5.864477799110344E-005
                    95  5.616164370354382E-004
                    96  8.759628081791743E-006
                    97  8.407363993677485E-004
                    98  1.014524989350721E-003
                    99 -1.694161221648992E-005
                   100  3.224881715043620E-005
                   101  6.135839882688811E-004
                   102 -9.110940738547961E-006
                   103  5.699039990715605E-004
                   104 -1.352829137977295E-004
                   105  9.225223352261213E-005
                   106 -9.181764829550615E-007
                   107  8.630797254577755E-006
                   108  4.159357576039974E-005
                   109 -1.638565358214502E-007
                   110 -2.208952918815474E-005
                   111  1.269718975497813E-005
                   112 -2.070192724884222E-004
                   113 -2.964591791562164E-005
                   114  1.010879143417829E-005
                   115 -9.301017920116185E-005
                   116 -1.111841825304620E-006
                   117  2.920817668901153E-005
                   118  2.011820419153060E-005
                   119 -2.459798805062718E-006
                   120 -6.305706344497494E-007
                   121 -1.307092142646027E-005
                   122 -1.480197678114918E-004
                   123  5.262944530218661E-006
                   124  1.105051958093299E-004
                   125  1.297368040201839E-004
                   126 -9.430485159491065E-006
                   127  4.130763121830439E-005
                   128 -7.977336604353497E-004
                   129  8.988794923633189E-007
                   130  2.036372682811530E-005
                   131  3.489293277136724E-004
                   132  6.366002390266435E-006
                   133 -1.682821873053445E-004
                   134  7.063887550190489E-004
                   135 -1.717560573569568E-005
                   136  6.950652441571035E-007
                   137  1.855784008869984E-006
                   138  1.432407209206752E-006
                   139  5.327822764045395E-007
                   140 -1.882096316107647E-004
                   141 -6.668064701496782E-006
                   142  1.680606027328472E-004
                   143  1.305911973419852E-005
                   144 -3.129728772265845E-006
                   145 -3.904673647693094E-005
                   146  2.826879792165877E-007
                   147  1.267592162201544E-006
                   148 -9.595123262445886E-006
                   149 -5.073686554293578E-007
                   150 -2.600657318799574E-007
                   151 -3.595344951960195E-006
                   152 -1.484961307674095E-004
                   153  3.581111807953816E-006
                   154  1.100290554540989E-004
                   155  1.327544416076140E-004
                   156  8.851368865669900E-006
                   157 -4.129355478232576E-005
                   158 -7.977063680507808E-004
                   159 -6.362004138232922E-007
                   160 -2.069313938535379E-005
                   161  3.485669869509374E-004
                   162 -5.864545664495823E-006
                   163  1.688711903828035E-004
                   164  7.065510028020129E-004
                   165 -1.712037441488314E-005
                   166 -7.178567121028922E-007
                   167 -1.864994273399217E-006
                   168  1.380684350532316E-006
                   169  5.300738034672147E-007
                   170 -1.880653055746264E-004
                   171  6.423561140402783E-006
                   172 -1.683294531479758E-004
                   173  1.303009646269809E-005
                   174 -3.249422406030952E-006
                   175 -3.896037777030063E-005
                   176 -2.017405090624631E-007
                   177 -1.255064144901853E-006
                   178 -9.645907353726430E-006
                   179 -5.126806521069638E-007
                   180  2.683076359259199E-007
                   181  3.603345370743891E-006
                   182 -1.222756136167160E-004
                   183 -3.280645014797391E-004
                   184  3.212880550864899E-005
                   185  1.497808746271216E-004
                   186 -1.899959650339697E-008
                   187  8.440821683132638E-008
                   188 -4.103651466395974E-005
                   189  1.520937709499401E-008
                   190 -4.244768823181299E-007
                   191  1.795301279066540E-005
                   192  1.987190743400022E-008
                   193 -3.525701271634736E-008
                   194  5.124068895584238E-005
                   195  1.914626159977183E-005
                   196  8.267399067056507E-009
                   197  2.449207209322861E-008
                   198  9.059631281828175E-006
                   199  2.406264577297786E-007
                   200  5.874184706084214E-005
                   201  1.715182772848310E-008
                   202  2.124235593901620E-007
                   203  4.929381559031518E-005
                   204 -2.496197092285650E-006
                   205 -1.165853841515775E-005
                   206  8.637615722020869E-009
                   207 -7.665542358366387E-009
                   208  3.200541702265570E-006
                   209  6.539269640297646E-007
                   210 -5.150025699473719E-010
                   211  2.724091931724740E-008
                   212  3.852952200819089E-003
                   213 -2.323713445057361E-003
                   214  7.022259174312705E-005
                   215  4.623126853255052E-004
                   216  3.791503189924892E-004
                   217  3.852931699813592E-003
                   218 -2.323703984468794E-003
                   219 -6.995029900532970E-005
                   220 -4.622918997152328E-004
                   221  3.792283213638947E-004
                   222 -6.662669395545769E-004
                   223 -1.263999702315018E-004
                   224  5.634816900084872E-007
                   225 -1.742422500343881E-005
                   226 -4.498383693489339E-005
                   227 -6.663362220398372E-004
                   228 -1.260276728212442E-004
                   229 -5.960730637408922E-007
                   230  1.740375537899137E-005
                   231 -4.501094934808297E-005
                   232 -2.335318706933608E-004
                   233 -4.063768880162117E-004
                   234 -7.641262823798438E-007
                   235 -5.791560487105246E-006
                   236  5.782079061929589E-006
                   237 -2.335711847061163E-004
                   238 -4.065383526682358E-004
                   239  7.672345570024329E-007
                   240  5.838130396538720E-006
                   241  5.827937663424633E-006
                   242  6.890655784048476E-005
                   243 -1.284012906637457E-004
                   244  4.959659105412981E-009
                   245 -2.046346571310095E-008
                   246  1.444974509226492E-005
 Sym= __2_A__
 Ene=  0.000000000000000E+000
 Spin= Alpha
 Occup=    2.00000000000000     
                     1 -4.592525092195465E-005
                     2 -2.130388995162014E-004
                     3  2.287255953354358E-003
                     4  1.010341134237679E-004
                     5  1.264042333185611E-003
                     6  1.076820299560412E-006
                     7  8.280561491451123E-008
                     8  2.994553453509604E-003
                     9 -1.846209835811250E-008
                    10 -5.836083745139860E-009
                    11 -5.123775830421130E-005
                    12 -1.914226160685119E-007
                    13 -7.339063732797642E-009
                    14 -5.358941356310324E-004
                    15  4.281615855031142E-005
                    16  3.796443917993891E-009
                    17  7.188695533829746E-009
                    18  6.388884047669418E-005
                    19 -8.937909137929015E-006
                    20 -2.812369995989510E-004
                    21 -5.831640214994304E-008
                    22 -4.081323644335988E-008
                    23 -3.267352821416146E-004
                    24  5.177753119211115E-005
                    25  1.808548014775722E-004
                    26 -1.566869393878385E-007
                    27 -4.598468284098013E-009
                    28 -2.285594095975342E-006
                    29 -1.093232585301932E-005
                    30  8.360352819325325E-010
                    31 -4.293824911507958E-009
                    32   1.00105979157788     
                    33  9.279236972603378E-003
                    34  2.630919038042804E-003
                    35 -7.763523800758025E-003
                    36 -1.486456328572198E-006
                    37 -1.104274930041829E-007
                    38 -4.133858717868579E-003
                    39  3.639139227393751E-007
                    40  2.523261951118640E-008
                    41  1.012358554648391E-003
                    42  1.595942119101710E-006
                    43  4.701278356002380E-008
                    44  4.435982852847842E-003
                    45  4.732583979365898E-004
                    46  4.491833146046519E-007
                    47  5.134839854923799E-009
                    48 -4.300366797570302E-004
                    49  6.370805170363478E-006
                    50  5.742220576628958E-004
                    51  2.300373741116671E-008
                    52  6.074602909392791E-008
                    53  9.335181245910457E-004
                    54 -1.120853856673263E-005
                    55  3.851936399561324E-004
                    56 -2.230829537487777E-007
                    57 -3.667089674194712E-008
                    58 -2.054975180397166E-004
                    59  4.657449907719059E-006
                    60  9.069290659337336E-008
                    61 -2.826280521426608E-009
                    62  7.252242458241740E-003
                    63 -2.054142245702689E-003
                    64 -2.757870218593678E-004
                    65  3.035282252147711E-003
                    66  3.199243653352719E-006
                    67  9.634683707394902E-005
                    68 -1.023080005325076E-005
                    69 -1.319610947980002E-005
                    70  5.985234819113807E-004
                    71  2.112026827278313E-005
                    72  2.215955504327088E-005
                    73 -2.091376361860688E-003
                    74  9.582692224035343E-005
                    75 -1.514234138503765E-005
                    76  3.622240461714127E-007
                    77  1.390440938340577E-005
                    78  2.903958812598036E-005
                    79  7.442295189649585E-007
                    80  7.627401819133946E-004
                    81  1.049191879477393E-005
                    82 -4.222864672849959E-004
                    83 -1.191648551225409E-005
                    84 -6.647516107523372E-006
                    85  7.296642377279552E-005
                    86 -2.222952166021935E-007
                    87  4.567935435245632E-005
                    88 -1.269152429989675E-004
                    89  7.646863234357405E-007
                    90  5.771029716441472E-007
                    91  5.010525005497107E-005
                    92  7.252216205480031E-003
                    93 -2.054226011597714E-003
                    94 -2.758268324781586E-004
                    95  3.035475006221351E-003
                    96 -3.206061399236248E-006
                    97 -9.634770037758582E-005
                    98 -1.024472714246200E-005
                    99  1.321060104574281E-005
                   100 -5.985247923090448E-004
                   101  2.126108806112407E-005
                   102 -2.209261741133058E-005
                   103  2.091497292504651E-003
                   104  9.558333707386711E-005
                   105 -1.512724410400247E-005
                   106 -4.020260915005994E-007
                   107 -1.391060957213190E-005
                   108  2.903845972659700E-005
                   109  7.342167568578777E-007
                   110  7.627686145563939E-004
                   111 -9.533991292493168E-006
                   112  4.224045309782026E-004
                   113 -1.192828438008528E-005
                   114 -6.344105626168850E-006
                   115  7.294893823423116E-005
                   116  2.378138856768321E-007
                   117 -4.569663867275150E-005
                   118 -1.269062897166972E-004
                   119  7.569299657807400E-007
                   120 -4.651742547826883E-007
                   121 -5.011081130443370E-005
                   122 -2.322881850026163E-004
                   123 -7.536210742300025E-004
                   124  2.244091003045897E-004
                   125 -1.108234024904916E-004
                   126 -1.686553854091932E-006
                   127 -1.847419512731138E-005
                   128 -2.547543985317906E-004
                   129  3.062864918624043E-006
                   130 -8.661645441496530E-006
                   131  5.359976840908189E-004
                   132 -4.416424692103063E-006
                   133  3.270432874968249E-004
                   134  7.499418629453770E-004
                   135 -1.406327961201543E-005
                   136 -9.363039958779163E-007
                   137  5.160255814438923E-005
                   138  1.394032482597644E-005
                   139  5.140886653670945E-007
                   140 -2.898222336135806E-004
                   141  2.097234204489187E-006
                   142 -2.187954200236381E-004
                   143 -1.337481243210614E-005
                   144 -1.873731257851009E-006
                   145  1.085100772920929E-006
                   146  7.974292678880498E-007
                   147 -4.093334989303541E-005
                   148 -3.967523027433034E-005
                   149 -8.486691769380387E-007
                   150  3.676020031605496E-007
                   151 -5.599349551293437E-006
                   152 -2.320093088198664E-004
                   153 -7.526959673082677E-004
                   154  2.244621146948864E-004
                   155 -1.117749909268040E-004
                   156  1.503282071799997E-006
                   157  1.845330686403235E-005
                   158 -2.547597547712923E-004
                   159 -2.677984240712911E-006
                   160  8.723742712689414E-006