[Molden Format]
[Atoms] AU
  N     1    7    -4.4682586200    0.2242395200   -0.0138517300        
  C     2    6    -1.7651473500   -0.0230695500   -0.0145869900        
  C     3    6    -0.4205289400    0.0057659800   -2.2808581800        
  C     4    6    -0.4349304600   -0.0330453300    2.2581370100        
  C     5    6     2.1917819000    0.0086342300   -2.2586428200        
  C     6    6     2.1830061600   -0.0116992500    2.2559146600        
  C     7    6     3.5098855900    0.0048207000    0.0046679800        
  H     8    1    -5.2910173200   -1.2787300700   -1.7743204600        
  H     9    1    -5.1606322600   -0.6836733700    1.5672106700        
  H    10    1    -1.4240574000    0.0324300900   -4.0419598600        
  H    11    1    -1.4432038000   -0.0591940100    4.0180819200        
  H    12    1     3.2031640900    0.0192028200   -4.0180144000        
  H    13    1     3.1810487600   -0.0213821600    4.0228458900        
  H    14    1     5.5381087600    0.0100165800    0.0090132400        
[5D]
[7F]
[GTO]
  1  0
   s    12 1.00
  0.114200D+05  0.172695D-04
  0.171200D+04  0.134411D-03
  0.389300D+03  0.694561D-03
  0.110000D+03  0.278531D-02
  0.355700D+02  0.863457D-02
  0.125400D+02  0.199805D-01
  0.464400D+01  0.262908D-01
  0.129300D+01 -0.243845D-01
  0.511800D+00 -0.924934D-01
  0.178700D+00 -0.339683D+00
  0.246240D-01  0.345111D+00
  0.112530D-01  0.752750D+00
   s    10 1.00
  0.114200D+05  0.523000D-03
  0.171200D+04  0.404500D-02
  0.389300D+03  0.207750D-01
  0.110000D+03  0.807269D-01
  0.355700D+02  0.233074D+00
  0.125400D+02  0.433501D+00
  0.464400D+01  0.347472D+00
  0.129300D+01  0.412620D-01
  0.511800D+00 -0.850799D-02
  0.178700D+00  0.238400D-02
   s    10 1.00
  0.114200D+05 -0.115000D-03
  0.171200D+04 -0.895000D-03
  0.389300D+03 -0.462400D-02
  0.110000D+03 -0.185280D-01
  0.355700D+02 -0.573390D-01
  0.125400D+02 -0.132076D+00
  0.464400D+01 -0.172510D+00
  0.129300D+01  0.151814D+00
  0.511800D+00  0.599944D+00
  0.178700D+00  0.387462D+00
   s     1 1.00
  0.129300D+01  0.100000D+01
   s     1 1.00
  0.178700D+00  0.100000D+01
   p     5 1.00
  0.266300D+02  0.146700D-01
  0.594800D+01  0.917640D-01
  0.174200D+01  0.298683D+00
  0.555000D+00  0.498487D+00
  0.172500D+00  0.337023D+00
   p     1 1.00
  0.174200D+01  0.100000D+01
   p     1 1.00
  0.555000D+00  0.100000D+01
   d     1 1.00
  0.165400D+01  0.100000D+01
   d     1 1.00
  0.469000D+00  0.100000D+01
   f     1 1.00
  0.109300D+01  0.100000D+01
  
  2  0
   s    10 1.00
  0.823600D+04  0.531000D-03
  0.123500D+04  0.410800D-02
  0.280800D+03  0.210870D-01
  0.792700D+02  0.818530D-01
  0.255900D+02  0.234817D+00
  0.899700D+01  0.434401D+00
  0.331900D+01  0.346129D+00
  0.905900D+00  0.393780D-01
  0.364300D+00 -0.898300D-02
  0.128500D+00  0.238500D-02
   s    10 1.00
  0.823600D+04 -0.113000D-03
  0.123500D+04 -0.878000D-03
  0.280800D+03 -0.454000D-02
  0.792700D+02 -0.181330D-01
  0.255900D+02 -0.557600D-01
  0.899700D+01 -0.126895D+00
  0.331900D+01 -0.170352D+00
  0.905900D+00  0.140382D+00
  0.364300D+00  0.598684D+00
  0.128500D+00  0.395389D+00
   s     1 1.00
  0.905900D+00  0.100000D+01
   s     1 1.00
  0.364300D+00  0.100000D+01
   p     5 1.00
  0.187100D+02  0.140310D-01
  0.413300D+01  0.868660D-01
  0.120000D+01  0.290216D+00
  0.382700D+00  0.501008D+00
  0.120900D+00  0.343406D+00
   p     1 1.00
  0.382700D+00  0.100000D+01
   p     1 1.00
  0.120900D+00  0.100000D+01
   d     1 1.00
  0.109700D+01  0.100000D+01
   d     1 1.00
  0.318000D+00  0.100000D+01
   f     1 1.00
  0.761000D+00  0.100000D+01
  
  3  0
   s    10 1.00
  0.823600D+04  0.531000D-03
  0.123500D+04  0.410800D-02
  0.280800D+03  0.210870D-01
  0.792700D+02  0.818530D-01
  0.255900D+02  0.234817D+00
  0.899700D+01  0.434401D+00
  0.331900D+01  0.346129D+00
  0.905900D+00  0.393780D-01
  0.364300D+00 -0.898300D-02
  0.128500D+00  0.238500D-02
   s    10 1.00
  0.823600D+04 -0.113000D-03
  0.123500D+04 -0.878000D-03
  0.280800D+03 -0.454000D-02
  0.792700D+02 -0.181330D-01
  0.255900D+02 -0.557600D-01
  0.899700D+01 -0.126895D+00
  0.331900D+01 -0.170352D+00
  0.905900D+00  0.140382D+00
  0.364300D+00  0.598684D+00
  0.128500D+00  0.395389D+00
   s     1 1.00
  0.905900D+00  0.100000D+01
   s     1 1.00
  0.364300D+00  0.100000D+01
   p     5 1.00
  0.187100D+02  0.140310D-01
  0.413300D+01  0.868660D-01
  0.120000D+01  0.290216D+00
  0.382700D+00  0.501008D+00
  0.120900D+00  0.343406D+00
   p     1 1.00
  0.382700D+00  0.100000D+01
   p     1 1.00
  0.120900D+00  0.100000D+01
   d     1 1.00
  0.109700D+01  0.100000D+01
   d     1 1.00
  0.318000D+00  0.100000D+01
   f     1 1.00
  0.761000D+00  0.100000D+01
  
  4  0
   s    10 1.00
  0.823600D+04  0.531000D-03
  0.123500D+04  0.410800D-02
  0.280800D+03  0.210870D-01
  0.792700D+02  0.818530D-01
  0.255900D+02  0.234817D+00
  0.899700D+01  0.434401D+00
  0.331900D+01  0.346129D+00
  0.905900D+00  0.393780D-01
  0.364300D+00 -0.898300D-02
  0.128500D+00  0.238500D-02
   s    10 1.00
  0.823600D+04 -0.113000D-03
  0.123500D+04 -0.878000D-03
  0.280800D+03 -0.454000D-02
  0.792700D+02 -0.181330D-01
  0.255900D+02 -0.557600D-01
  0.899700D+01 -0.126895D+00
  0.331900D+01 -0.170352D+00
  0.905900D+00  0.140382D+00
  0.364300D+00  0.598684D+00
  0.128500D+00  0.395389D+00
   s     1 1.00
  0.905900D+00  0.100000D+01
   s     1 1.00
  0.364300D+00  0.100000D+01
   p     5 1.00
  0.187100D+02  0.140310D-01
  0.413300D+01  0.868660D-01
  0.120000D+01  0.290216D+00
  0.382700D+00  0.501008D+00
  0.120900D+00  0.343406D+00
   p     1 1.00
  0.382700D+00  0.100000D+01
   p     1 1.00
  0.120900D+00  0.100000D+01
   d     1 1.00
  0.109700D+01  0.100000D+01
   d     1 1.00
  0.318000D+00  0.100000D+01
   f     1 1.00
  0.761000D+00  0.100000D+01
  
  5  0
   s    10 1.00
  0.823600D+04  0.531000D-03
  0.123500D+04  0.410800D-02
  0.280800D+03  0.210870D-01
  0.792700D+02  0.818530D-01
  0.255900D+02  0.234817D+00
  0.899700D+01  0.434401D+00
  0.331900D+01  0.346129D+00
  0.905900D+00  0.393780D-01
  0.364300D+00 -0.898300D-02
  0.128500D+00  0.238500D-02
   s    10 1.00
  0.823600D+04 -0.113000D-03
  0.123500D+04 -0.878000D-03
  0.280800D+03 -0.454000D-02
  0.792700D+02 -0.181330D-01
  0.255900D+02 -0.557600D-01
  0.899700D+01 -0.126895D+00
  0.331900D+01 -0.170352D+00
  0.905900D+00  0.140382D+00
  0.364300D+00  0.598684D+00
  0.128500D+00  0.395389D+00
   s     1 1.00
  0.905900D+00  0.100000D+01
   s     1 1.00
  0.364300D+00  0.100000D+01
   p     5 1.00
  0.187100D+02  0.140310D-01
  0.413300D+01  0.868660D-01
  0.120000D+01  0.290216D+00
  0.382700D+00  0.501008D+00
  0.120900D+00  0.343406D+00
   p     1 1.00
  0.382700D+00  0.100000D+01
   p     1 1.00
  0.120900D+00  0.100000D+01
   d     1 1.00
  0.109700D+01  0.100000D+01
   d     1 1.00
  0.318000D+00  0.100000D+01
   f     1 1.00
  0.761000D+00  0.100000D+01
  
  6  0
   s    10 1.00
  0.823600D+04  0.531000D-03
  0.123500D+04  0.410800D-02
  0.280800D+03  0.210870D-01
  0.792700D+02  0.818530D-01
  0.255900D+02  0.234817D+00
  0.899700D+01  0.434401D+00
  0.331900D+01  0.346129D+00
  0.905900D+00  0.393780D-01
  0.364300D+00 -0.898300D-02
  0.128500D+00  0.238500D-02
   s    10 1.00
  0.823600D+04 -0.113000D-03
  0.123500D+04 -0.878000D-03
  0.280800D+03 -0.454000D-02
  0.792700D+02 -0.181330D-01
  0.255900D+02 -0.557600D-01
  0.899700D+01 -0.126895D+00
  0.331900D+01 -0.170352D+00
  0.905900D+00  0.140382D+00
  0.364300D+00  0.598684D+00
  0.128500D+00  0.395389D+00
   s     1 1.00
  0.905900D+00  0.100000D+01
   s     1 1.00
  0.364300D+00  0.100000D+01
   p     5 1.00
  0.187100D+02  0.140310D-01
  0.413300D+01  0.868660D-01
  0.120000D+01  0.290216D+00
  0.382700D+00  0.501008D+00
  0.120900D+00  0.343406D+00
   p     1 1.00
  0.382700D+00  0.100000D+01
   p     1 1.00
  0.120900D+00  0.100000D+01
   d     1 1.00
  0.109700D+01  0.100000D+01
   d     1 1.00
  0.318000D+00  0.100000D+01
   f     1 1.00
  0.761000D+00  0.100000D+01
  
  7  0
   s    10 1.00
  0.823600D+04  0.531000D-03
  0.123500D+04  0.410800D-02
  0.280800D+03  0.210870D-01
  0.792700D+02  0.818530D-01
  0.255900D+02  0.234817D+00
  0.899700D+01  0.434401D+00
  0.331900D+01  0.346129D+00
  0.905900D+00  0.393780D-01
  0.364300D+00 -0.898300D-02
  0.128500D+00  0.238500D-02
   s    10 1.00
  0.823600D+04 -0.113000D-03
  0.123500D+04 -0.878000D-03
  0.280800D+03 -0.454000D-02
  0.792700D+02 -0.181330D-01
  0.255900D+02 -0.557600D-01
  0.899700D+01 -0.126895D+00
  0.331900D+01 -0.170352D+00
  0.905900D+00  0.140382D+00
  0.364300D+00  0.598684D+00
  0.128500D+00  0.395389D+00
   s     1 1.00
  0.905900D+00  0.100000D+01
   s     1 1.00
  0.364300D+00  0.100000D+01
   p     5 1.00
  0.187100D+02  0.140310D-01
  0.413300D+01  0.868660D-01
  0.120000D+01  0.290216D+00
  0.382700D+00  0.501008D+00
  0.120900D+00  0.343406D+00
   p     1 1.00
  0.382700D+00  0.100000D+01
   p     1 1.00
  0.120900D+00  0.100000D+01
   d     1 1.00
  0.109700D+01  0.100000D+01
   d     1 1.00
  0.318000D+00  0.100000D+01
   f     1 1.00
  0.761000D+00  0.100000D+01
  
  8  0
   s     4 1.00
  0.130100D+02  0.196850D-01
  0.196200D+01  0.137977D+00
  0.444600D+00  0.478148D+00
  0.122000D+00  0.501240D+00
   s     1 1.00
  0.122000D+00  0.100000D+01
   p     1 1.00
  0.727000D+00  0.100000D+01
  
  9  0
   s     4 1.00
  0.130100D+02  0.196850D-01
  0.196200D+01  0.137977D+00
  0.444600D+00  0.478148D+00
  0.122000D+00  0.501240D+00
   s     1 1.00
  0.122000D+00  0.100000D+01
   p     1 1.00
  0.727000D+00  0.100000D+01
  
 10  0
   s     4 1.00
  0.130100D+02  0.196850D-01
  0.196200D+01  0.137977D+00
  0.444600D+00  0.478148D+00
  0.122000D+00  0.501240D+00
   s     1 1.00
  0.122000D+00  0.100000D+01
   p     1 1.00
  0.727000D+00  0.100000D+01
  
 11  0
   s     4 1.00
  0.130100D+02  0.196850D-01
  0.196200D+01  0.137977D+00
  0.444600D+00  0.478148D+00
  0.122000D+00  0.501240D+00
   s     1 1.00
  0.122000D+00  0.100000D+01
   p     1 1.00
  0.727000D+00  0.100000D+01
  
 12  0
   s     4 1.00
  0.130100D+02  0.196850D-01
  0.196200D+01  0.137977D+00
  0.444600D+00  0.478148D+00
  0.122000D+00  0.501240D+00
   s     1 1.00
  0.122000D+00  0.100000D+01
   p     1 1.00
  0.727000D+00  0.100000D+01
  
 13  0
   s     4 1.00
  0.130100D+02  0.196850D-01
  0.196200D+01  0.137977D+00
  0.444600D+00  0.478148D+00
  0.122000D+00  0.501240D+00
   s     1 1.00
  0.122000D+00  0.100000D+01
   p     1 1.00
  0.727000D+00  0.100000D+01
  
 14  0
   s     4 1.00
  0.130100D+02  0.196850D-01
  0.196200D+01  0.137977D+00
  0.444600D+00  0.478148D+00
  0.122000D+00  0.501240D+00
   s     1 1.00
  0.122000D+00  0.100000D+01
   p     1 1.00
  0.727000D+00  0.100000D+01
  
[MO]
 Sym= __1_A__
 Ene=  0.000000000000000E+000
 Spin= Alpha
 Occup=    2.00000000000000     
                     1  2.221198959577276E-004
                     2  0.998410526712105     
                     3 -6.112674783837674E-004
                     4  1.540646210361451E-003
                     5  6.943025943824592E-003
                     6  6.425355860859486E-003
                     7 -5.573308840428662E-003
                     8  1.151934868914201E-003
                     9 -1.022078557398265E-003
                    10  5.556505574779726E-004
                    11 -1.411009467426292E-004
                    12 -2.164087440896227E-003
                    13  3.566485851586661E-003
                    14 -8.730972251712395E-004
                    15 -4.220317673888155E-005
                    16 -4.516627752417466E-005
                    17 -7.025703406214371E-005
                    18  6.499550773276274E-005
                    19  1.875162692711909E-005
                    20 -3.221690385703069E-004
                    21  1.442472057597544E-004
                    22 -2.077788737076491E-005
                    23  7.556377804466429E-005
                    24 -4.871836887271800E-004
                    25  8.510832596366442E-007
                    26 -1.022936031515835E-004
                    27 -2.773213407388512E-005
                    28 -1.231109545550204E-005
                    29  1.363130844682778E-005
                    30 -6.764171745225104E-005
                    31 -6.114685598211223E-005
                    32 -3.736289064463904E-004
                    33  3.009095871707739E-004
                    34  3.007259510623000E-004
                    35 -1.393672777377671E-004
                    36 -2.973099641103708E-003
                    37 -2.140109549614534E-004
                    38 -7.167628771398000E-005
                    39  1.581983455616424E-004
                    40  4.967923351986905E-007
                    41  2.053523434563674E-004
                    42  5.093115435743427E-003
                    43  7.001347359340646E-004
                    44 -9.001392132384956E-004
                    45 -1.775032163132129E-004
                    46 -1.796999777125998E-006
                    47  4.489372943364535E-006
                    48  1.668997789207549E-004
                    49  4.295234953825671E-005
                    50  5.486669749124924E-004
                    51  1.961594148882668E-004
                    52 -2.501984393706773E-005
                    53 -1.871734208663351E-004
                    54 -3.642948358298540E-004
                    55  4.953347472381349E-006
                    56 -4.484508886284687E-005
                    57  7.274986484429688E-006
                    58  1.272950752280336E-005
                    59 -2.683476298118633E-007
                    60 -3.942914921455909E-005
                    61  3.583640001930906E-005
                    62 -4.836175577929111E-004
                    63 -1.912319288459351E-003
                    64  7.658881602965609E-005
                    65  1.309678204141775E-003
                    66  2.197551708630457E-004
                    67 -1.917114780405293E-004
                    68 -4.248639287035298E-004
                    69  6.719017823252958E-004
                    70  7.315467391288315E-005
                    71  2.745150169124795E-004
                    72  6.363574109556442E-005
                    73 -2.892954397556632E-004
                    74 -1.257763143900114E-003
                    75 -5.749880561991345E-005
                    76 -2.235484770091017E-005
                    77  1.346170518482379E-005
                    78  6.617734498285501E-005
                    79 -9.044455399688396E-006
                    80  2.813152065563639E-004
                    81  1.859592631776968E-004
                    82 -3.238849110459618E-005
                    83 -1.405893237441709E-004
                    84  6.321295223355467E-005
                    85 -1.867968645682190E-005
                    86 -7.203676481439327E-005
                    87  1.899755928864013E-005
                    88 -4.347672644200378E-006
                    89  1.640392103308972E-005
                    90 -4.970798920198267E-005
                    91 -1.296148525633823E-005
                    92 -3.401283597368767E-004
                    93 -1.454523605114859E-003
                    94  1.620659230334734E-004
                    95  4.981680646625328E-004
                    96  2.812052730815474E-004
                    97 -2.044657452224757E-004
                    98  3.903390170827641E-004
                    99  5.488890874793794E-004
                   100  1.108448759837631E-004
                   101  2.802983340818423E-006
                   102 -1.065744296521678E-003
                   103 -3.408949570921924E-004
                   104  7.261230803766472E-004
                   105 -6.198251330783943E-005
                   106  7.342149877116115E-006
                   107 -1.342657737803123E-005
                   108  5.435153352592366E-005
                   109 -1.336148321160705E-005
                   110  1.716817838229854E-004
                   111 -1.676400403043517E-004
                   112  1.803026076253934E-005
                   113 -1.830181188504871E-004
                   114  7.999020378434779E-005
                   115  1.187074517433746E-005
                   116 -3.343450247908462E-005
                   117  1.917581519546703E-005
                   118  1.004769299750183E-005
                   119 -1.352266100521614E-005
                   120 -3.585737323702598E-005
                   121 -1.095343885773754E-005
                   122 -2.546867073280767E-004
                   123 -6.490731709309632E-004
                   124  5.546538674124528E-005
                   125  8.056536101809979E-004
                   126 -3.458033508251635E-004
                   127 -7.867314877910698E-005
                   128 -7.235118612837470E-007
                   129  2.745487050186123E-004
                   130 -3.178090076426655E-005
                   131  8.087283825757384E-005
                   132  1.463049078982539E-003
                   133  1.554767428614845E-004
                   134 -5.990177063985191E-005
                   135  1.243146525504011E-005
                   136 -1.265886354323332E-006
                   137 -5.782104264074005E-006
                   138 -1.739657080299714E-006
                   139  1.033703326000789E-005
                   140  1.251340997777396E-004
                   141  2.402640732179037E-004
                   142  1.201312119964839E-005
                   143 -2.400053703138806E-004
                   144 -8.399200334704265E-006
                   145 -1.971739140396021E-005
                   146 -1.587024373019901E-005
                   147  2.618947843997781E-006
                   148 -7.280504437526712E-006
                   149 -9.583306944611916E-007
                   150 -5.628828097326850E-005
                   151 -2.686511668318064E-006
                   152 -2.027292075065532E-004
                   153 -4.793560898145529E-004
                   154  2.545100110441058E-005
                   155  6.710155760714121E-004
                   156 -3.226280279003604E-004
                   157 -7.113025406649804E-005
                   158 -2.080376032695098E-005
                   159  8.615440631759485E-005
                   160 -4.596140269322306E-005
                   161  3.847600587829488E-005
                   162  3.632549422272683E-004
                   163  1.611936611578271E-004
                   164  5.431426748180734E-004
                   165  8.153070044010225E-007
                   166  3.519245400994371E-006
                   167  5.418022484325225E-006
                   168  6.100121542479656E-006
                   169  1.157911411447737E-005
                   170  3.142245258578857E-005
                   171 -1.418569399238879E-004
                   172 -1.041909713902578E-005
                   173 -1.431684530585331E-004
                   174  9.824491472296068E-008
                   175  4.579517607659388E-006
                   176 -1.411871190501715E-005
                   177  4.067485831495977E-006
                   178 -1.534140238848937E-007
                   179 -9.635655120264160E-008
                   180 -3.832094001575537E-005
                   181 -5.387038369140505E-006
                   182 -1.452570923153570E-004
                   183 -4.505861550200095E-004
                   184  3.271921869233670E-005
                   185  1.972697718422446E-004
                   186 -2.677072601724520E-005
                   187 -6.498016526217765E-005
                   188 -2.131900879698429E-005
                   189  1.148777365159038E-004
                   190  1.569522313752217E-005
                   191  1.072439251605478E-004
                   192 -4.582978585906962E-004
                   193 -1.055663620620926E-004
                   194  6.086844881122687E-004
                   195 -4.850489972681273E-006
                   196  3.107832368590871E-007
                   197  7.759886973854491E-007
                   198  1.125739949313568E-006
                   199 -7.529994900532060E-007
                   200 -1.245062420734401E-004
                   201 -8.530038489728482E-005
                   202 -2.215561689315243E-006
                   203  6.224065310591887E-005
                   204  1.821027568015313E-005
                   205  2.040694424264156E-006
                   206  4.343475090660318E-006
                   207  2.128915216348974E-006
                   208  7.138767141187072E-006
                   209 -7.536912293292909E-008
                   210 -5.869127269966446E-006
                   211 -3.178327511929717E-006
                   212  3.550617786639704E-004
                   213 -6.232583377417091E-004
                   214  8.188187981141751E-005
                   215  2.388007636922122E-004
                   216  1.354854675839979E-004
                   217  1.125098060883462E-003
                   218 -1.538769520743527E-003
                   219  1.169615840725304E-004
                   220  2.689201411021958E-004
                   221 -2.771665706223403E-004
                   222 -3.530977791193884E-004
                   223 -4.943264838351026E-004
                   224 -7.412644083141074E-005
                   225  9.280207504397079E-006
                   226  5.676331293521851E-005
                   227 -3.023191738609019E-004
                   228 -4.551568454435802E-004
                   229 -5.517231602392727E-005
                   230  1.268463692673704E-005
                   231 -6.269387381406057E-005
                   232 -2.651022581475998E-005
                   233 -5.527460132452577E-004
                   234  3.697334469201612E-006
                   235 -1.186999720610549E-006
                   236 -6.556318479957549E-006
                   237 -5.796827176312164E-005
                   238 -4.692593332714059E-004
                   239  7.281594108968524E-006
                   240 -2.434948194389603E-006
                   241  9.432255347414332E-006
                   242 -2.839697039408312E-005
                   243  1.536209550935679E-004
                   244  3.448191884726987E-005
                   245  2.309821875197428E-006
                   246 -5.191415103055187E-007
 Sym= __2_A__
 Ene=  0.000000000000000E+000
 Spin= Alpha
 Occup=    2.00000000000000     
                     1 -1.991278290072518E-005
                     2 -1.105854313568046E-004
                     3  2.233555123976459E-003
                     4 -1.351213727994390E-005
                     5  1.161281956359842E-003
                     6  1.855906173893920E-003
                     7  2.583196731373233E-005
                     8 -1.655922920791712E-004
                     9 -1.396635002025181E-004
                    10  1.331303354989431E-004
                    11 -1.545653797179497E-005
                    12  8.623323954552388E-005
                    13  8.413249076363176E-005
                    14  1.919742550562842E-005
                    15 -6.782142887573361E-005
                    16  2.390218352122576E-007
                    17 -7.322072859865822E-007
                    18  4.694963270709748E-005
                    19 -8.592078555421184E-006
                    20  1.030705411801571E-004
                    21  1.874782048403971E-005
                    22  1.118885066758693E-005
                    23  1.188296363104786E-004
                    24 -3.289706561759706E-005
                    25 -1.157542562478604E-005
                    26  1.364616891507361E-004
                    27 -4.966713940863823E-005
                    28  1.779190774323235E-006
                    29 -4.945737103967738E-006
                    30  1.114666756174171E-004
                    31  4.071358501379762E-005
                    32   1.00092510427965     
                    33  8.760736378086017E-003
                    34  2.801038048570884E-003
                    35 -8.296310292289234E-003
                    36 -2.407745031421454E-003
                    37  6.747220755731331E-004
                    38  2.168520525270070E-005
                    39  9.394017995872059E-004
                    40 -2.367400625100988E-004
                    41 -5.751345712159560E-006
                    42  3.282081491032173E-003
                    43 -1.329676153369521E-004
                    44 -2.129107097246751E-005
                    45  2.985084676756546E-004
                    46 -3.507779055627831E-006
                    47 -5.085855527478569E-006
                    48  3.944713776299506E-004
                    49 -3.459309203304127E-005
                    50 -1.035002412215747E-003
                    51  3.867735895220272E-005
                    52  1.790533146908987E-005
                    53 -1.101000254648921E-004
                    54  6.128509839311934E-005
                    55  1.594925485333981E-006
                    56  2.937771376277029E-004
                    57 -9.288981577516765E-006
                    58 -2.360234588152760E-007
                    59 -2.654876420878436E-006
                    60  7.967352546749010E-005
                    61  2.059097606320424E-005
                    62  1.350062767800196E-002
                    63 -1.850896952226219E-003
                    64 -3.147273839101611E-004
                    65  3.159237945859622E-003
                    66 -1.198701587742841E-004
                    67  1.146539833996185E-004
                    68  2.449176894735909E-004
                    69  1.836612339994393E-005
                    70 -8.633037573158652E-006
                    71  5.474292093648165E-004
                    72  1.787191789368107E-004
                    73 -2.421209902006811E-005
                    74 -1.770404547928336E-003
                    75 -9.383725046981782E-006
                    76  2.108151316163227E-005
                    77  9.572303523493832E-006
                    78 -3.284896105644686E-005
                    79 -4.039317353510051E-006
                    80 -3.910152259394260E-004
                    81 -4.573546196446924E-004
                    82 -8.528554728455232E-006
                    83  7.459781445275973E-004
                    84 -1.193698504857017E-006
                    85  4.765590703325512E-005
                    86  1.047589591726686E-004
                    87  4.896855957567183E-007
                    88 -1.990970531100973E-005
                    89 -9.180253960682418E-006
                    90 -3.104181674793762E-005
                    91  5.128938721989039E-006
                    92  1.463558383839143E-002
                    93 -1.813998363584489E-003
                    94 -3.088150894169199E-004
                    95  3.109800033455761E-003
                    96 -1.269279714596111E-004
                    97  1.191759166089021E-004
                    98 -2.441070582771933E-004
                    99  1.554726776494623E-005
                   100  2.942490882795305E-006
                   101 -5.257552897077761E-004
                   102  1.485092056934812E-004
                   103 -5.056813803494747E-005
                   104  1.802856191676892E-003
                   105 -8.293172318742954E-006
                   106 -2.265515234800402E-005
                   107 -8.207491572403796E-006
                   108 -3.459863387256958E-005
                   109 -3.907791156651134E-006
                   110 -4.128182949288911E-004
                   111  4.713821513547434E-004
                   112  8.108422118107169E-006
                   113  7.536608933418102E-004
                   114 -3.581456819065703E-006
                   115 -5.177544155981632E-005
                   116  1.062080041523477E-004
                   117 -2.407077599890633E-006
                   118  1.779836521283361E-005
                   119  5.819092349798831E-006
                   120 -3.067897689702521E-005
                   121  5.762914245465682E-006
                   122 -1.079387166912202E-004
                   123 -6.967211409065481E-004
                   124  2.494057193688043E-004
                   125 -3.073386048126037E-004
                   126 -2.098278953610256E-004
                   127  2.772967587380612E-005
                   128 -4.194871772685020E-005
                   129  5.951738900743161E-004
                   130 -6.151467234420462E-007
                   131  4.189738632956221E-005
                   132  5.787994336017515E-004
                   133  8.619848449982567E-006
                   134  3.283782217095267E-004
                   135  1.541722288834325E-007
                   136  4.183517937794934E-005
                   137  2.383356386752729E-007
                   138 -3.419940838048352E-005
                   139 -1.490561395197162E-006
                   140  1.886314163542458E-004
                   141 -2.570462080629556E-004
                   142  4.890382156941872E-006
                   143 -2.616703552911108E-004
                   144 -4.168653955981429E-006
                   145 -1.794614475393363E-005
                   146  1.290082355479896E-005
                   147 -8.370103206525927E-008
                   148 -1.216342874033065E-005
                   149 -2.815438203838062E-006
                   150 -2.625965419039699E-005
                   151 -1.298283065324006E-007
                   152 -9.334898095443551E-005
                   153 -6.956221812353556E-004
                   154  2.497301711481020E-004
                   155 -3.221309366417858E-004
                   156 -2.047884565978798E-004
                   157  2.267769558031141E-005
                   158  4.004216300830868E-005
                   159  5.972830292193328E-004
                   160  6.126448725627742E-006