[Molden Format]
[Atoms] AU
  N     1    7    -4.4682586200    0.2242395200   -0.0138517300        
  C     2    6    -1.7651473500   -0.0230695500   -0.0145869900        
  C     3    6    -0.4205289400    0.0057659800   -2.2808581800        
  C     4    6    -0.4349304600   -0.0330453300    2.2581370100        
  C     5    6     2.1917819000    0.0086342300   -2.2586428200        
  C     6    6     2.1830061600   -0.0116992500    2.2559146600        
  C     7    6     3.5098855900    0.0048207000    0.0046679800        
  H     8    1    -5.2910173200   -1.2787300700   -1.7743204600        
  H     9    1    -5.1606322600   -0.6836733700    1.5672106700        
  H    10    1    -1.4240574000    0.0324300900   -4.0419598600        
  H    11    1    -1.4432038000   -0.0591940100    4.0180819200        
  H    12    1     3.2031640900    0.0192028200   -4.0180144000        
  H    13    1     3.1810487600   -0.0213821600    4.0228458900        
  H    14    1     5.5381087600    0.0100165800    0.0090132400        
[5D]
[7F]
[GTO]
  1  0
   s    12 1.00
  0.114200D+05  0.172695D-04
  0.171200D+04  0.134411D-03
  0.389300D+03  0.694561D-03
  0.110000D+03  0.278531D-02
  0.355700D+02  0.863457D-02
  0.125400D+02  0.199805D-01
  0.464400D+01  0.262908D-01
  0.129300D+01 -0.243845D-01
  0.511800D+00 -0.924934D-01
  0.178700D+00 -0.339683D+00
  0.246240D-01  0.345111D+00
  0.112530D-01  0.752750D+00
   s    10 1.00
  0.114200D+05  0.523000D-03
  0.171200D+04  0.404500D-02
  0.389300D+03  0.207750D-01
  0.110000D+03  0.807269D-01
  0.355700D+02  0.233074D+00
  0.125400D+02  0.433501D+00
  0.464400D+01  0.347472D+00
  0.129300D+01  0.412620D-01
  0.511800D+00 -0.850799D-02
  0.178700D+00  0.238400D-02
   s    10 1.00
  0.114200D+05 -0.115000D-03
  0.171200D+04 -0.895000D-03
  0.389300D+03 -0.462400D-02
  0.110000D+03 -0.185280D-01
  0.355700D+02 -0.573390D-01
  0.125400D+02 -0.132076D+00
  0.464400D+01 -0.172510D+00
  0.129300D+01  0.151814D+00
  0.511800D+00  0.599944D+00
  0.178700D+00  0.387462D+00
   s     1 1.00
  0.129300D+01  0.100000D+01
   s     1 1.00
  0.178700D+00  0.100000D+01
   p     5 1.00
  0.266300D+02  0.146700D-01
  0.594800D+01  0.917640D-01
  0.174200D+01  0.298683D+00
  0.555000D+00  0.498487D+00
  0.172500D+00  0.337023D+00
   p     1 1.00
  0.174200D+01  0.100000D+01
   p     1 1.00
  0.555000D+00  0.100000D+01
   d     1 1.00
  0.165400D+01  0.100000D+01
   d     1 1.00
  0.469000D+00  0.100000D+01
   f     1 1.00
  0.109300D+01  0.100000D+01
  
  2  0
   s    10 1.00
  0.823600D+04  0.531000D-03
  0.123500D+04  0.410800D-02
  0.280800D+03  0.210870D-01
  0.792700D+02  0.818530D-01
  0.255900D+02  0.234817D+00
  0.899700D+01  0.434401D+00
  0.331900D+01  0.346129D+00
  0.905900D+00  0.393780D-01
  0.364300D+00 -0.898300D-02
  0.128500D+00  0.238500D-02
   s    10 1.00
  0.823600D+04 -0.113000D-03
  0.123500D+04 -0.878000D-03
  0.280800D+03 -0.454000D-02
  0.792700D+02 -0.181330D-01
  0.255900D+02 -0.557600D-01
  0.899700D+01 -0.126895D+00
  0.331900D+01 -0.170352D+00
  0.905900D+00  0.140382D+00
  0.364300D+00  0.598684D+00
  0.128500D+00  0.395389D+00
   s     1 1.00
  0.905900D+00  0.100000D+01
   s     1 1.00
  0.364300D+00  0.100000D+01
   p     5 1.00
  0.187100D+02  0.140310D-01
  0.413300D+01  0.868660D-01
  0.120000D+01  0.290216D+00
  0.382700D+00  0.501008D+00
  0.120900D+00  0.343406D+00
   p     1 1.00
  0.382700D+00  0.100000D+01
   p     1 1.00
  0.120900D+00  0.100000D+01
   d     1 1.00
  0.109700D+01  0.100000D+01
   d     1 1.00
  0.318000D+00  0.100000D+01
   f     1 1.00
  0.761000D+00  0.100000D+01
  
  3  0
   s    10 1.00
  0.823600D+04  0.531000D-03
  0.123500D+04  0.410800D-02
  0.280800D+03  0.210870D-01
  0.792700D+02  0.818530D-01
  0.255900D+02  0.234817D+00
  0.899700D+01  0.434401D+00
  0.331900D+01  0.346129D+00
  0.905900D+00  0.393780D-01
  0.364300D+00 -0.898300D-02
  0.128500D+00  0.238500D-02
   s    10 1.00
  0.823600D+04 -0.113000D-03
  0.123500D+04 -0.878000D-03
  0.280800D+03 -0.454000D-02
  0.792700D+02 -0.181330D-01
  0.255900D+02 -0.557600D-01
  0.899700D+01 -0.126895D+00
  0.331900D+01 -0.170352D+00
  0.905900D+00  0.140382D+00
  0.364300D+00  0.598684D+00
  0.128500D+00  0.395389D+00
   s     1 1.00
  0.905900D+00  0.100000D+01
   s     1 1.00
  0.364300D+00  0.100000D+01
   p     5 1.00
  0.187100D+02  0.140310D-01
  0.413300D+01  0.868660D-01
  0.120000D+01  0.290216D+00
  0.382700D+00  0.501008D+00
  0.120900D+00  0.343406D+00
   p     1 1.00
  0.382700D+00  0.100000D+01
   p     1 1.00
  0.120900D+00  0.100000D+01
   d     1 1.00
  0.109700D+01  0.100000D+01
   d     1 1.00
  0.318000D+00  0.100000D+01
   f     1 1.00
  0.761000D+00  0.100000D+01
  
  4  0
   s    10 1.00
  0.823600D+04  0.531000D-03
  0.123500D+04  0.410800D-02
  0.280800D+03  0.210870D-01
  0.792700D+02  0.818530D-01
  0.255900D+02  0.234817D+00
  0.899700D+01  0.434401D+00
  0.331900D+01  0.346129D+00
  0.905900D+00  0.393780D-01
  0.364300D+00 -0.898300D-02
  0.128500D+00  0.238500D-02
   s    10 1.00
  0.823600D+04 -0.113000D-03
  0.123500D+04 -0.878000D-03
  0.280800D+03 -0.454000D-02
  0.792700D+02 -0.181330D-01
  0.255900D+02 -0.557600D-01
  0.899700D+01 -0.126895D+00
  0.331900D+01 -0.170352D+00
  0.905900D+00  0.140382D+00
  0.364300D+00  0.598684D+00
  0.128500D+00  0.395389D+00
   s     1 1.00
  0.905900D+00  0.100000D+01
   s     1 1.00
  0.364300D+00  0.100000D+01
   p     5 1.00
  0.187100D+02  0.140310D-01
  0.413300D+01  0.868660D-01
  0.120000D+01  0.290216D+00
  0.382700D+00  0.501008D+00
  0.120900D+00  0.343406D+00
   p     1 1.00
  0.382700D+00  0.100000D+01
   p     1 1.00
  0.120900D+00  0.100000D+01
   d     1 1.00
  0.109700D+01  0.100000D+01
   d     1 1.00
  0.318000D+00  0.100000D+01
   f     1 1.00
  0.761000D+00  0.100000D+01
  
  5  0
   s    10 1.00
  0.823600D+04  0.531000D-03
  0.123500D+04  0.410800D-02
  0.280800D+03  0.210870D-01
  0.792700D+02  0.818530D-01
  0.255900D+02  0.234817D+00
  0.899700D+01  0.434401D+00
  0.331900D+01  0.346129D+00
  0.905900D+00  0.393780D-01
  0.364300D+00 -0.898300D-02
  0.128500D+00  0.238500D-02
   s    10 1.00
  0.823600D+04 -0.113000D-03
  0.123500D+04 -0.878000D-03
  0.280800D+03 -0.454000D-02
  0.792700D+02 -0.181330D-01
  0.255900D+02 -0.557600D-01
  0.899700D+01 -0.126895D+00
  0.331900D+01 -0.170352D+00
  0.905900D+00  0.140382D+00
  0.364300D+00  0.598684D+00
  0.128500D+00  0.395389D+00
   s     1 1.00
  0.905900D+00  0.100000D+01
   s     1 1.00
  0.364300D+00  0.100000D+01
   p     5 1.00
  0.187100D+02  0.140310D-01
  0.413300D+01  0.868660D-01
  0.120000D+01  0.290216D+00
  0.382700D+00  0.501008D+00
  0.120900D+00  0.343406D+00
   p     1 1.00
  0.382700D+00  0.100000D+01
   p     1 1.00
  0.120900D+00  0.100000D+01
   d     1 1.00
  0.109700D+01  0.100000D+01
   d     1 1.00
  0.318000D+00  0.100000D+01
   f     1 1.00
  0.761000D+00  0.100000D+01
  
  6  0
   s    10 1.00
  0.823600D+04  0.531000D-03
  0.123500D+04  0.410800D-02
  0.280800D+03  0.210870D-01
  0.792700D+02  0.818530D-01
  0.255900D+02  0.234817D+00
  0.899700D+01  0.434401D+00
  0.331900D+01  0.346129D+00
  0.905900D+00  0.393780D-01
  0.364300D+00 -0.898300D-02
  0.128500D+00  0.238500D-02
   s    10 1.00
  0.823600D+04 -0.113000D-03
  0.123500D+04 -0.878000D-03
  0.280800D+03 -0.454000D-02
  0.792700D+02 -0.181330D-01
  0.255900D+02 -0.557600D-01
  0.899700D+01 -0.126895D+00
  0.331900D+01 -0.170352D+00
  0.905900D+00  0.140382D+00
  0.364300D+00  0.598684D+00
  0.128500D+00  0.395389D+00
   s     1 1.00
  0.905900D+00  0.100000D+01
   s     1 1.00
  0.364300D+00  0.100000D+01
   p     5 1.00
  0.187100D+02  0.140310D-01
  0.413300D+01  0.868660D-01
  0.120000D+01  0.290216D+00
  0.382700D+00  0.501008D+00
  0.120900D+00  0.343406D+00
   p     1 1.00
  0.382700D+00  0.100000D+01
   p     1 1.00
  0.120900D+00  0.100000D+01
   d     1 1.00
  0.109700D+01  0.100000D+01
   d     1 1.00
  0.318000D+00  0.100000D+01
   f     1 1.00
  0.761000D+00  0.100000D+01
  
  7  0
   s    10 1.00
  0.823600D+04  0.531000D-03
  0.123500D+04  0.410800D-02
  0.280800D+03  0.210870D-01
  0.792700D+02  0.818530D-01
  0.255900D+02  0.234817D+00
  0.899700D+01  0.434401D+00
  0.331900D+01  0.346129D+00
  0.905900D+00  0.393780D-01
  0.364300D+00 -0.898300D-02
  0.128500D+00  0.238500D-02
   s    10 1.00
  0.823600D+04 -0.113000D-03
  0.123500D+04 -0.878000D-03
  0.280800D+03 -0.454000D-02
  0.792700D+02 -0.181330D-01
  0.255900D+02 -0.557600D-01
  0.899700D+01 -0.126895D+00
  0.331900D+01 -0.170352D+00
  0.905900D+00  0.140382D+00
  0.364300D+00  0.598684D+00
  0.128500D+00  0.395389D+00
   s     1 1.00
  0.905900D+00  0.100000D+01
   s     1 1.00
  0.364300D+00  0.100000D+01
   p     5 1.00
  0.187100D+02  0.140310D-01
  0.413300D+01  0.868660D-01
  0.120000D+01  0.290216D+00
  0.382700D+00  0.501008D+00
  0.120900D+00  0.343406D+00
   p     1 1.00
  0.382700D+00  0.100000D+01
   p     1 1.00
  0.120900D+00  0.100000D+01
   d     1 1.00
  0.109700D+01  0.100000D+01
   d     1 1.00
  0.318000D+00  0.100000D+01
   f     1 1.00
  0.761000D+00  0.100000D+01
  
  8  0
   s     4 1.00
  0.130100D+02  0.196850D-01
  0.196200D+01  0.137977D+00
  0.444600D+00  0.478148D+00
  0.122000D+00  0.501240D+00
   s     1 1.00
  0.122000D+00  0.100000D+01
   p     1 1.00
  0.727000D+00  0.100000D+01
  
  9  0
   s     4 1.00
  0.130100D+02  0.196850D-01
  0.196200D+01  0.137977D+00
  0.444600D+00  0.478148D+00
  0.122000D+00  0.501240D+00
   s     1 1.00
  0.122000D+00  0.100000D+01
   p     1 1.00
  0.727000D+00  0.100000D+01
  
 10  0
   s     4 1.00
  0.130100D+02  0.196850D-01
  0.196200D+01  0.137977D+00
  0.444600D+00  0.478148D+00
  0.122000D+00  0.501240D+00
   s     1 1.00
  0.122000D+00  0.100000D+01
   p     1 1.00
  0.727000D+00  0.100000D+01
  
 11  0
   s     4 1.00
  0.130100D+02  0.196850D-01
  0.196200D+01  0.137977D+00
  0.444600D+00  0.478148D+00
  0.122000D+00  0.501240D+00
   s     1 1.00
  0.122000D+00  0.100000D+01
   p     1 1.00
  0.727000D+00  0.100000D+01
  
 12  0
   s     4 1.00
  0.130100D+02  0.196850D-01
  0.196200D+01  0.137977D+00
  0.444600D+00  0.478148D+00
  0.122000D+00  0.501240D+00
   s     1 1.00
  0.122000D+00  0.100000D+01
   p     1 1.00
  0.727000D+00  0.100000D+01
  
 13  0
   s     4 1.00
  0.130100D+02  0.196850D-01
  0.196200D+01  0.137977D+00
  0.444600D+00  0.478148D+00
  0.122000D+00  0.501240D+00
   s     1 1.00
  0.122000D+00  0.100000D+01
   p     1 1.00
  0.727000D+00  0.100000D+01
  
 14  0
   s     4 1.00
  0.130100D+02  0.196850D-01
  0.196200D+01  0.137977D+00
  0.444600D+00  0.478148D+00
  0.122000D+00  0.501240D+00
   s     1 1.00
  0.122000D+00  0.100000D+01
   p     1 1.00
  0.727000D+00  0.100000D+01
  
[MO]
 Sym= __1_a__
 Ene=  0.000000000000000E+000
 Spin= Alpha
 Occup=    2.00000000000000     
                     1  2.221198959537450E-004
                     2  0.998410526712113     
                     3 -6.112674783848100E-004
                     4  1.540646210361010E-003
                     5  6.943025943829260E-003
                     6  6.425355860870740E-003
                     7 -5.573308840439800E-003
                     8  1.151934868908370E-003
                     9 -1.022078557400820E-003
                    10  5.556505574805870E-004
                    11 -1.411009467429680E-004
                    12 -2.164087440889620E-003
                    13  3.566485851586870E-003
                    14 -8.730972251712180E-004
                    15 -4.220317673908832E-005
                    16 -4.516627752463670E-005
                    17 -7.025703406203340E-005
                    18  6.499550773231500E-005
                    19  1.875162692695180E-005
                    20 -3.221690385722197E-004
                    21  1.442472057595890E-004
                    22 -2.077788737043040E-005
                    23  7.556377804071880E-005
                    24 -4.871836887275990E-004
                    25  8.510832594713049E-007
                    26 -1.022936031515297E-004
                    27 -2.773213407357218E-005
                    28 -1.231109545578840E-005
                    29  1.363130844671970E-005
                    30 -6.764171745092897E-005
                    31 -6.114685598177038E-005
                    32 -3.736289081634740E-004
                    33  3.009095870055310E-004
                    34  3.007259510515430E-004
                    35 -1.393672776644870E-004
                    36 -2.973099641061760E-003
                    37 -2.140109549676260E-004
                    38 -7.167628780009181E-005
                    39  1.581983455494630E-004
                    40  4.967923356405650E-007
                    41  2.053523434698640E-004
                    42  5.093115435656770E-003
                    43  7.001347359294020E-004
                    44 -9.001392131913090E-004
                    45 -1.775032163282806E-004
                    46 -1.796999779317270E-006
                    47  4.489372943571810E-006
                    48  1.668997789271476E-004
                    49  4.295234953824360E-005
                    50  5.486669749352425E-004
                    51  1.961594148890940E-004
                    52 -2.501984393735870E-005
                    53 -1.871734208874818E-004
                    54 -3.642948358306540E-004
                    55  4.953347473468038E-006
                    56 -4.484508886357126E-005
                    57  7.274986484306834E-006
                    58  1.272950752283912E-005
                    59 -2.683476297211160E-007
                    60 -3.942914921495972E-005
                    61  3.583640001898795E-005
                    62 -4.836175577158780E-004
                    63 -1.912319288496320E-003
                    64  7.658881602989119E-005
                    65  1.309678204115630E-003
                    66  2.197551714394630E-004
                    67 -1.917114780510670E-004
                    68 -4.248639284117930E-004
                    69  6.719017822728390E-004
                    70  7.315467391294030E-005
                    71  2.745150168811840E-004
                    72  6.363574099668941E-005
                    73 -2.892954397526680E-004
                    74 -1.257763143853220E-003
                    75 -5.749880563410795E-005
                    76 -2.235484771517540E-005
                    77  1.346170518487810E-005
                    78  6.617734499158000E-005
                    79 -9.044455399415599E-006
                    80  2.813152065811816E-004
                    81  1.859592632152810E-004
                    82 -3.238849110506930E-005
                    83 -1.405893237527018E-004
                    84  6.321295223181420E-005
                    85 -1.867968646099993E-005
                    86 -7.203676481396086E-005
                    87  1.899755928857948E-005
                    88 -4.347672646370080E-006
                    89  1.640392103305240E-005
                    90 -4.970798920655574E-005
                    91 -1.296148525634904E-005
                    92 -3.401283596444210E-004
                    93 -1.454523605596320E-003
                    94  1.620659230396050E-004
                    95  4.981680646718711E-004
                    96  2.812052735048010E-004
                    97 -2.044657452198260E-004
                    98  3.903390167396250E-004
                    99  5.488890874346670E-004
                   100  1.108448759825430E-004
                   101  2.802983398484740E-006
                   102 -1.065744296576490E-003
                   103 -3.408949570900790E-004
                   104  7.261230804133700E-004
                   105 -6.198251331990824E-005
                   106  7.342149880332840E-006
                   107 -1.342657737761100E-005
                   108  5.435153352487400E-005
                   109 -1.336148321147760E-005
                   110  1.716817838454727E-004
                   111 -1.676400403620600E-004
                   112  1.803026076191590E-005
                   113 -1.830181188697804E-004
                   114  7.999020378348310E-005
                   115  1.187074517523616E-005
                   116 -3.343450247341219E-005
                   117  1.917581519550879E-005
                   118  1.004769299764164E-005
                   119 -1.352266100533340E-005
                   120 -3.585737323733218E-005
                   121 -1.095343885774523E-005
                   122 -2.546867073224260E-004
                   123 -6.490731707945920E-004
                   124  5.546538673468270E-005
                   125  8.056536102036670E-004
                   126 -3.458033513338230E-004
                   127 -7.867314877923990E-005
                   128 -7.235124033800910E-007
                   129  2.745487050383360E-004
                   130 -3.178090076361560E-005
                   131  8.087283830051341E-005
                   132  1.463049079095480E-003
                   133  1.554767428608090E-004
                   134 -5.990177059984650E-005
                   135  1.243146524605993E-005
                   136 -1.265886377586970E-006
                   137 -5.782104264056280E-006
                   138 -1.739657071371154E-006
                   139  1.033703326028680E-005
                   140  1.251340997460284E-004
                   141  2.402640732327060E-004
                   142  1.201312119993640E-005
                   143 -2.400053702985520E-004
                   144 -8.399200334657001E-006
                   145 -1.971739140253444E-005
                   146 -1.587024373006290E-005
                   147  2.618947844004717E-006
                   148 -7.280504440196940E-006
                   149 -9.583306944394999E-007
                   150 -5.628828096824481E-005
                   151 -2.686511668300094E-006
                   152 -2.027292074631000E-004
                   153 -4.793560895612820E-004
                   154  2.545100109168110E-005
                   155  6.710155760975950E-004
                   156 -3.226280279461300E-004
                   157 -7.113025406346041E-005
                   158 -2.080376068191080E-005
                   159  8.615440631252570E-005
                   160 -4.596140269311180E-005
                   161  3.847600592254320E-005
                   162  3.632549421994880E-004
                   163  1.611936611563440E-004
                   164  5.431426748761420E-004
                   165  8.153070023597524E-007
                   166  3.519245394473130E-006
                   167  5.418022484233440E-006
                   168  6.100121549397320E-006
                   169  1.157911411467230E-005
                   170  3.142245257274923E-005
                   171 -1.418569399423340E-004
                   172 -1.041909713896140E-005
                   173 -1.431684530406830E-004
                   174  9.824491504052630E-008
                   175  4.579517605761280E-006
                   176 -1.411871189815391E-005
                   177  4.067485831550699E-006
                   178 -1.534140287891946E-007
                   179 -9.635655136997620E-008
                   180 -3.832094001466836E-005
                   181 -5.387038369065678E-006
                   182 -1.452570923019220E-004
                   183 -4.505861552880180E-004
                   184  3.271921869686440E-005
                   185  1.972697718421960E-004
                   186 -2.677072597364910E-005
                   187 -6.498016526117300E-005
                   188 -2.131900820184290E-005
                   189  1.148777365065340E-004
                   190  1.569522313770910E-005
                   191  1.072439251248970E-004
                   192 -4.582978585697210E-004
                   193 -1.055663620601280E-004
                   194  6.086844880043350E-004
                   195 -4.850489980530106E-006
                   196  3.107832172858890E-007
                   197  7.759886973628080E-007
                   198  1.125739950033658E-006
                   199 -7.529994899755360E-007
                   200 -1.245062421061423E-004
                   201 -8.530038491806450E-005
                   202 -2.215561689226150E-006
                   203  6.224065311561101E-005
                   204  1.821027568028160E-005
                   205  2.040694422015045E-006
                   206  4.343475096691277E-006
                   207  2.128915216342607E-006
                   208  7.138767145346880E-006
                   209 -7.536912293851990E-008
                   210 -5.869127268314573E-006
                   211 -3.178327511954564E-006
                   212  3.550617786441510E-004
                   213 -6.232583377451970E-004
                   214  8.188187981078820E-005
                   215  2.388007636915930E-004
                   216  1.354854675841910E-004
                   217  1.125098060865170E-003
                   218 -1.538769520745290E-003
                   219  1.169615840710240E-004
                   220  2.689201411020760E-004
                   221 -2.771665706231090E-004
                   222 -3.530977797261560E-004
                   223 -4.943264836037280E-004
                   224 -7.412644084299910E-005
                   225  9.280207504958209E-006
                   226  5.676331290456470E-005
                   227 -3.023191745526150E-004
                   228 -4.551568451469970E-004
                   229 -5.517231604468370E-005
                   230  1.268463692624110E-005
                   231 -6.269387377430550E-005
                   232 -2.651022548138410E-005
                   233 -5.527460133691170E-004
                   234  3.697334451802980E-006
                   235 -1.186999720698400E-006
                   236 -6.556318469065940E-006
                   237 -5.796827197851950E-005
                   238 -4.692593332197940E-004
                   239  7.281594117721700E-006
                   240 -2.434948194371150E-006
                   241  9.432255356296289E-006
                   242 -2.839697043307930E-005
                   243  1.536209551409220E-004
                   244  3.448191885084980E-005
                   245  2.309821875213390E-006
                   246 -5.191415019808280E-007
 Sym= __2_a__
 Ene=  0.000000000000000E+000
 Spin= Alpha
 Occup=    2.00000000000000     
                     1 -1.991278292927660E-005
                     2 -1.105854296175290E-004
                     3  2.233555123993200E-003
                     4 -1.351213727212270E-005
                     5  1.161281956229740E-003
                     6  1.855906173891990E-003
                     7  2.583196726668670E-005
                     8 -1.655922920958640E-004
                     9 -1.396635001821570E-004
                    10  1.331303355094540E-004
                    11 -1.545653797854990E-005
                    12  8.623323956171550E-005
                    13  8.413249077551420E-005
                    14  1.919742552923450E-005
                    15 -6.782142887404232E-005
                    16  2.390218285243560E-007
                    17 -7.322072871752980E-007
                    18  4.694963270884380E-005
                    19 -8.592078555516270E-006
                    20  1.030705411530517E-004
                    21  1.874782050092230E-005
                    22  1.118885067164690E-005
                    23  1.188296362940496E-004
                    24 -3.289706562317710E-005
                    25 -1.157542562127004E-005
                    26  1.364616891399393E-004
                    27 -4.966713940723108E-005
                    28  1.779190776042772E-006
                    29 -4.945737104900870E-006
                    30  1.114666756235705E-004
                    31  4.071358501530564E-005
                    32   1.00092510427411     
                    33  8.760736377557690E-003
                    34  2.801038048391090E-003
                    35 -8.296310291030590E-003
                    36 -2.407745031226850E-003
                    37  6.747220755636820E-004
                    38  2.168520432097550E-005
                    39  9.394017997651850E-004
                    40 -2.367400625057890E-004
                    41 -5.751345733176980E-006
                    42  3.282081490703340E-003
                    43 -1.329676153346340E-004
                    44 -2.129107058789590E-005
                    45  2.985084676486559E-004
                    46 -3.507779089554410E-006
                    47 -5.085855527032430E-006
                    48  3.944713776279600E-004
                    49 -3.459309203172230E-005
                    50 -1.035002411868891E-003
                    51  3.867735898159310E-005
                    52  1.790533145827920E-005
                    53 -1.101000254431168E-004
                    54  6.128509838643179E-005
                    55  1.594925482032340E-006
                    56  2.937771375877044E-004
                    57 -9.288981577674595E-006
                    58 -2.360234550485780E-007
                    59 -2.654876418119320E-006
                    60  7.967352546190686E-005
                    61  2.059097606446687E-005
                    62  1.350062793681240E-002
                    63 -1.850896949732450E-003
                    64 -3.147273830615380E-004
                    65  3.159237943530110E-003
                    66 -1.198701583776930E-004
                    67  1.146539833546010E-004
                    68  2.449176904555390E-004
                    69  1.836612333272800E-005
                    70 -8.633037550549050E-006
                    71  5.474292090046410E-004
                    72  1.787191790134830E-004
                    73 -2.421209901630300E-005
                    74 -1.770404547814300E-003
                    75 -9.383725020851325E-006
                    76  2.108151310903090E-005
                    77  9.572303521709699E-006
                    78 -3.284896093355380E-005
                    79 -4.039317353307680E-006
                    80 -3.910152258417418E-004
                    81 -4.573546193412190E-004
                    82 -8.528554729023100E-006
                    83  7.459781443224200E-004
                    84 -1.193698507633960E-006
                    85  4.765590704607237E-005
                    86  1.047589590871216E-004
                    87  4.896855974390494E-007
                    88 -1.990970532739166E-005
                    89 -9.180253958783860E-006
                    90 -3.104181676286617E-005
                    91  5.128938722544642E-006
                    92  1.463558394575780E-002
                    93 -1.813998363290250E-003
                    94 -3.088150890056060E-004
                    95  3.109800032431530E-003
                    96 -1.269279706621300E-004
                    97  1.191759166005730E-004
                    98 -2.441070582415250E-004
                    99  1.554726777875950E-005
                   100  2.942490886183370E-006
                   101 -5.257552894642510E-004
                   102  1.485092056956290E-004
                   103 -5.056813803183850E-005
                   104  1.802856191676980E-003
                   105 -8.293172333275522E-006
                   106 -2.265515235141200E-005
                   107 -8.207491572125059E-006
                   108 -3.459863382613380E-005
                   109 -3.907791155461760E-006
                   110 -4.128182948955844E-004
                   111  4.713821511256940E-004
                   112  8.108422114992060E-006
                   113  7.536608932228820E-004
                   114 -3.581456821387300E-006
                   115 -5.177544156953054E-005
                   116  1.062080041232485E-004
                   117 -2.407077600450037E-006
                   118  1.779836522738372E-005
                   119  5.819092350408570E-006
                   120 -3.067897691049408E-005
                   121  5.762914245764255E-006
                   122 -1.079387078334610E-004
                   123 -6.967211411643530E-004
                   124  2.494057192863180E-004
                   125 -3.073386039575760E-004
                   126 -2.098278960075090E-004
                   127  2.772967587583790E-005
                   128 -4.194871804180220E-005
                   129  5.951738899314220E-004
                   130 -6.151467243081160E-007
                   131  4.189738640648600E-005
                   132  5.787994340463920E-004
                   133  8.619848454449710E-006
                   134  3.283782215336370E-004
                   135  1.541722140560284E-007
                   136  4.183517934870870E-005
                   137  2.383356388999580E-007
                   138 -3.419940837314860E-005
                   139 -1.490561394544750E-006
                   140  1.886314163633564E-004
                   141 -2.570462078766580E-004
                   142  4.890382156613880E-006
                   143 -2.616703551640100E-004
                   144 -4.168653955340750E-006
                   145 -1.794614475344157E-005
                   146  1.290082353789710E-005
                   147 -8.370103197332598E-008
                   148 -1.216342873105046E-005
                   149 -2.815438203559620E-006
                   150 -2.625965421418924E-005
                   151 -1.298283068224253E-007
                   152 -9.334897606593790E-005
                   153 -6.956221812864350E-004
                   154  2.497301711071680E-004
                   155 -3.221309361201030E-004
                   156 -2.047884570563650E-004
                   157  2.267769558224050E-005
                   158  4.004216278052660E-005
                   159  5.972830291843790E-004
                   160  6.126448725554280E-006