[Molden Format]
[Atoms] AU
  N     1    7    -4.4930274900    0.0759733000   -0.3208092800        
  C     2    6    -1.7533775500   -0.0125600200   -0.1439899100        
  C     3    6    -0.3611424900    0.2156017500   -2.3612178400        
  C     4    6    -0.4713953000   -0.2057457300    2.1474535900        
  C     5    6     2.2531493900    0.2070061500   -2.2878514000        
  C     6    6     2.1438976300   -0.1742521200    2.2106174200        
  C     7    6     3.5128033300    0.0230800400   -0.0053067300        
  H     8    1    -5.1332152800   -1.7799926600   -0.2986151000        
  H     9    1    -5.1097393700    0.7419431700    1.3957613600        
  H    10    1    -1.3419286300    0.4149967500   -4.1218879400        
  H    11    1    -1.5205389900   -0.3972328500    3.8730424400        
  H    12    1     3.3071129900    0.3758094100   -4.0130403500        
  H    13    1     3.1076154800   -0.3200876900    3.9905012500        
  H    14    1     5.5409580300    0.0368728400    0.0456986300        
[5D]
[7F]
[GTO]
  1  0
   s    12 1.00
  0.114200D+05  0.172695D-04
  0.171200D+04  0.134411D-03
  0.389300D+03  0.694561D-03
  0.110000D+03  0.278531D-02
  0.355700D+02  0.863457D-02
  0.125400D+02  0.199805D-01
  0.464400D+01  0.262908D-01
  0.129300D+01 -0.243845D-01
  0.511800D+00 -0.924934D-01
  0.178700D+00 -0.339683D+00
  0.246240D-01  0.345111D+00
  0.112530D-01  0.752750D+00
   s    10 1.00
  0.114200D+05  0.523000D-03
  0.171200D+04  0.404500D-02
  0.389300D+03  0.207750D-01
  0.110000D+03  0.807269D-01
  0.355700D+02  0.233074D+00
  0.125400D+02  0.433501D+00
  0.464400D+01  0.347472D+00
  0.129300D+01  0.412620D-01
  0.511800D+00 -0.850799D-02
  0.178700D+00  0.238400D-02
   s    10 1.00
  0.114200D+05 -0.115000D-03
  0.171200D+04 -0.895000D-03
  0.389300D+03 -0.462400D-02
  0.110000D+03 -0.185280D-01
  0.355700D+02 -0.573390D-01
  0.125400D+02 -0.132076D+00
  0.464400D+01 -0.172510D+00
  0.129300D+01  0.151814D+00
  0.511800D+00  0.599944D+00
  0.178700D+00  0.387462D+00
   s     1 1.00
  0.129300D+01  0.100000D+01
   s     1 1.00
  0.178700D+00  0.100000D+01
   p     5 1.00
  0.266300D+02  0.146700D-01
  0.594800D+01  0.917640D-01
  0.174200D+01  0.298683D+00
  0.555000D+00  0.498487D+00
  0.172500D+00  0.337023D+00
   p     1 1.00
  0.174200D+01  0.100000D+01
   p     1 1.00
  0.555000D+00  0.100000D+01
   d     1 1.00
  0.165400D+01  0.100000D+01
   d     1 1.00
  0.469000D+00  0.100000D+01
   f     1 1.00
  0.109300D+01  0.100000D+01
  
  2  0
   s    10 1.00
  0.823600D+04  0.531000D-03
  0.123500D+04  0.410800D-02
  0.280800D+03  0.210870D-01
  0.792700D+02  0.818530D-01
  0.255900D+02  0.234817D+00
  0.899700D+01  0.434401D+00
  0.331900D+01  0.346129D+00
  0.905900D+00  0.393780D-01
  0.364300D+00 -0.898300D-02
  0.128500D+00  0.238500D-02
   s    10 1.00
  0.823600D+04 -0.113000D-03
  0.123500D+04 -0.878000D-03
  0.280800D+03 -0.454000D-02
  0.792700D+02 -0.181330D-01
  0.255900D+02 -0.557600D-01
  0.899700D+01 -0.126895D+00
  0.331900D+01 -0.170352D+00
  0.905900D+00  0.140382D+00
  0.364300D+00  0.598684D+00
  0.128500D+00  0.395389D+00
   s     1 1.00
  0.905900D+00  0.100000D+01
   s     1 1.00
  0.364300D+00  0.100000D+01
   p     5 1.00
  0.187100D+02  0.140310D-01
  0.413300D+01  0.868660D-01
  0.120000D+01  0.290216D+00
  0.382700D+00  0.501008D+00
  0.120900D+00  0.343406D+00
   p     1 1.00
  0.382700D+00  0.100000D+01
   p     1 1.00
  0.120900D+00  0.100000D+01
   d     1 1.00
  0.109700D+01  0.100000D+01
   d     1 1.00
  0.318000D+00  0.100000D+01
   f     1 1.00
  0.761000D+00  0.100000D+01
  
  3  0
   s    10 1.00
  0.823600D+04  0.531000D-03
  0.123500D+04  0.410800D-02
  0.280800D+03  0.210870D-01
  0.792700D+02  0.818530D-01
  0.255900D+02  0.234817D+00
  0.899700D+01  0.434401D+00
  0.331900D+01  0.346129D+00
  0.905900D+00  0.393780D-01
  0.364300D+00 -0.898300D-02
  0.128500D+00  0.238500D-02
   s    10 1.00
  0.823600D+04 -0.113000D-03
  0.123500D+04 -0.878000D-03
  0.280800D+03 -0.454000D-02
  0.792700D+02 -0.181330D-01
  0.255900D+02 -0.557600D-01
  0.899700D+01 -0.126895D+00
  0.331900D+01 -0.170352D+00
  0.905900D+00  0.140382D+00
  0.364300D+00  0.598684D+00
  0.128500D+00  0.395389D+00
   s     1 1.00
  0.905900D+00  0.100000D+01
   s     1 1.00
  0.364300D+00  0.100000D+01
   p     5 1.00
  0.187100D+02  0.140310D-01
  0.413300D+01  0.868660D-01
  0.120000D+01  0.290216D+00
  0.382700D+00  0.501008D+00
  0.120900D+00  0.343406D+00
   p     1 1.00
  0.382700D+00  0.100000D+01
   p     1 1.00
  0.120900D+00  0.100000D+01
   d     1 1.00
  0.109700D+01  0.100000D+01
   d     1 1.00
  0.318000D+00  0.100000D+01
   f     1 1.00
  0.761000D+00  0.100000D+01
  
  4  0
   s    10 1.00
  0.823600D+04  0.531000D-03
  0.123500D+04  0.410800D-02
  0.280800D+03  0.210870D-01
  0.792700D+02  0.818530D-01
  0.255900D+02  0.234817D+00
  0.899700D+01  0.434401D+00
  0.331900D+01  0.346129D+00
  0.905900D+00  0.393780D-01
  0.364300D+00 -0.898300D-02
  0.128500D+00  0.238500D-02
   s    10 1.00
  0.823600D+04 -0.113000D-03
  0.123500D+04 -0.878000D-03
  0.280800D+03 -0.454000D-02
  0.792700D+02 -0.181330D-01
  0.255900D+02 -0.557600D-01
  0.899700D+01 -0.126895D+00
  0.331900D+01 -0.170352D+00
  0.905900D+00  0.140382D+00
  0.364300D+00  0.598684D+00
  0.128500D+00  0.395389D+00
   s     1 1.00
  0.905900D+00  0.100000D+01
   s     1 1.00
  0.364300D+00  0.100000D+01
   p     5 1.00
  0.187100D+02  0.140310D-01
  0.413300D+01  0.868660D-01
  0.120000D+01  0.290216D+00
  0.382700D+00  0.501008D+00
  0.120900D+00  0.343406D+00
   p     1 1.00
  0.382700D+00  0.100000D+01
   p     1 1.00
  0.120900D+00  0.100000D+01
   d     1 1.00
  0.109700D+01  0.100000D+01
   d     1 1.00
  0.318000D+00  0.100000D+01
   f     1 1.00
  0.761000D+00  0.100000D+01
  
  5  0
   s    10 1.00
  0.823600D+04  0.531000D-03
  0.123500D+04  0.410800D-02
  0.280800D+03  0.210870D-01
  0.792700D+02  0.818530D-01
  0.255900D+02  0.234817D+00
  0.899700D+01  0.434401D+00
  0.331900D+01  0.346129D+00
  0.905900D+00  0.393780D-01
  0.364300D+00 -0.898300D-02
  0.128500D+00  0.238500D-02
   s    10 1.00
  0.823600D+04 -0.113000D-03
  0.123500D+04 -0.878000D-03
  0.280800D+03 -0.454000D-02
  0.792700D+02 -0.181330D-01
  0.255900D+02 -0.557600D-01
  0.899700D+01 -0.126895D+00
  0.331900D+01 -0.170352D+00
  0.905900D+00  0.140382D+00
  0.364300D+00  0.598684D+00
  0.128500D+00  0.395389D+00
   s     1 1.00
  0.905900D+00  0.100000D+01
   s     1 1.00
  0.364300D+00  0.100000D+01
   p     5 1.00
  0.187100D+02  0.140310D-01
  0.413300D+01  0.868660D-01
  0.120000D+01  0.290216D+00
  0.382700D+00  0.501008D+00
  0.120900D+00  0.343406D+00
   p     1 1.00
  0.382700D+00  0.100000D+01
   p     1 1.00
  0.120900D+00  0.100000D+01
   d     1 1.00
  0.109700D+01  0.100000D+01
   d     1 1.00
  0.318000D+00  0.100000D+01
   f     1 1.00
  0.761000D+00  0.100000D+01
  
  6  0
   s    10 1.00
  0.823600D+04  0.531000D-03
  0.123500D+04  0.410800D-02
  0.280800D+03  0.210870D-01
  0.792700D+02  0.818530D-01
  0.255900D+02  0.234817D+00
  0.899700D+01  0.434401D+00
  0.331900D+01  0.346129D+00
  0.905900D+00  0.393780D-01
  0.364300D+00 -0.898300D-02
  0.128500D+00  0.238500D-02
   s    10 1.00
  0.823600D+04 -0.113000D-03
  0.123500D+04 -0.878000D-03
  0.280800D+03 -0.454000D-02
  0.792700D+02 -0.181330D-01
  0.255900D+02 -0.557600D-01
  0.899700D+01 -0.126895D+00
  0.331900D+01 -0.170352D+00
  0.905900D+00  0.140382D+00
  0.364300D+00  0.598684D+00
  0.128500D+00  0.395389D+00
   s     1 1.00
  0.905900D+00  0.100000D+01
   s     1 1.00
  0.364300D+00  0.100000D+01
   p     5 1.00
  0.187100D+02  0.140310D-01
  0.413300D+01  0.868660D-01
  0.120000D+01  0.290216D+00
  0.382700D+00  0.501008D+00
  0.120900D+00  0.343406D+00
   p     1 1.00
  0.382700D+00  0.100000D+01
   p     1 1.00
  0.120900D+00  0.100000D+01
   d     1 1.00
  0.109700D+01  0.100000D+01
   d     1 1.00
  0.318000D+00  0.100000D+01
   f     1 1.00
  0.761000D+00  0.100000D+01
  
  7  0
   s    10 1.00
  0.823600D+04  0.531000D-03
  0.123500D+04  0.410800D-02
  0.280800D+03  0.210870D-01
  0.792700D+02  0.818530D-01
  0.255900D+02  0.234817D+00
  0.899700D+01  0.434401D+00
  0.331900D+01  0.346129D+00
  0.905900D+00  0.393780D-01
  0.364300D+00 -0.898300D-02
  0.128500D+00  0.238500D-02
   s    10 1.00
  0.823600D+04 -0.113000D-03
  0.123500D+04 -0.878000D-03
  0.280800D+03 -0.454000D-02
  0.792700D+02 -0.181330D-01
  0.255900D+02 -0.557600D-01
  0.899700D+01 -0.126895D+00
  0.331900D+01 -0.170352D+00
  0.905900D+00  0.140382D+00
  0.364300D+00  0.598684D+00
  0.128500D+00  0.395389D+00
   s     1 1.00
  0.905900D+00  0.100000D+01
   s     1 1.00
  0.364300D+00  0.100000D+01
   p     5 1.00
  0.187100D+02  0.140310D-01
  0.413300D+01  0.868660D-01
  0.120000D+01  0.290216D+00
  0.382700D+00  0.501008D+00
  0.120900D+00  0.343406D+00
   p     1 1.00
  0.382700D+00  0.100000D+01
   p     1 1.00
  0.120900D+00  0.100000D+01
   d     1 1.00
  0.109700D+01  0.100000D+01
   d     1 1.00
  0.318000D+00  0.100000D+01
   f     1 1.00
  0.761000D+00  0.100000D+01
  
  8  0
   s     4 1.00
  0.130100D+02  0.196850D-01
  0.196200D+01  0.137977D+00
  0.444600D+00  0.478148D+00
  0.122000D+00  0.501240D+00
   s     1 1.00
  0.122000D+00  0.100000D+01
   p     1 1.00
  0.727000D+00  0.100000D+01
  
  9  0
   s     4 1.00
  0.130100D+02  0.196850D-01
  0.196200D+01  0.137977D+00
  0.444600D+00  0.478148D+00
  0.122000D+00  0.501240D+00
   s     1 1.00
  0.122000D+00  0.100000D+01
   p     1 1.00
  0.727000D+00  0.100000D+01
  
 10  0
   s     4 1.00
  0.130100D+02  0.196850D-01
  0.196200D+01  0.137977D+00
  0.444600D+00  0.478148D+00
  0.122000D+00  0.501240D+00
   s     1 1.00
  0.122000D+00  0.100000D+01
   p     1 1.00
  0.727000D+00  0.100000D+01
  
 11  0
   s     4 1.00
  0.130100D+02  0.196850D-01
  0.196200D+01  0.137977D+00
  0.444600D+00  0.478148D+00
  0.122000D+00  0.501240D+00
   s     1 1.00
  0.122000D+00  0.100000D+01
   p     1 1.00
  0.727000D+00  0.100000D+01
  
 12  0
   s     4 1.00
  0.130100D+02  0.196850D-01
  0.196200D+01  0.137977D+00
  0.444600D+00  0.478148D+00
  0.122000D+00  0.501240D+00
   s     1 1.00
  0.122000D+00  0.100000D+01
   p     1 1.00
  0.727000D+00  0.100000D+01
  
 13  0
   s     4 1.00
  0.130100D+02  0.196850D-01
  0.196200D+01  0.137977D+00
  0.444600D+00  0.478148D+00
  0.122000D+00  0.501240D+00
   s     1 1.00
  0.122000D+00  0.100000D+01
   p     1 1.00
  0.727000D+00  0.100000D+01
  
 14  0
   s     4 1.00
  0.130100D+02  0.196850D-01
  0.196200D+01  0.137977D+00
  0.444600D+00  0.478148D+00
  0.122000D+00  0.501240D+00
   s     1 1.00
  0.122000D+00  0.100000D+01
   p     1 1.00
  0.727000D+00  0.100000D+01
  
[MO]
 Sym= __1_A__
 Ene=   1.00000000000000     
 Spin= Alpha
 Occup=    1.00000000000000     
                     1  1.804639636683246E-004
                     2  0.998129690678651     
                     3 -4.524075639813612E-003
                     4  1.967988513866089E-003
                     5  7.135847371418676E-003
                     6  6.955289496467967E-003
                     7 -3.680207372243470E-003
                     8  7.618169172348111E-003
                     9 -1.080356375621750E-003
                    10  3.358367976923239E-004
                    11 -8.807574353858780E-004
                    12 -2.289225596643778E-003
                    13  2.162680698715271E-003
                    14 -3.817179864771365E-003
                    15  4.143761493924483E-005
                    16 -6.856426553464668E-005
                    17 -3.652540941161857E-005
                    18  3.353733864666220E-005
                    19  1.146427611962430E-005
                    20 -4.622894743764406E-005
                    21  6.092703997392074E-004
                    22 -2.368901810920281E-004
                    23  2.338613111589752E-004
                    24 -2.988299568029052E-004
                    25  9.335655794855326E-006
                    26 -9.189847808006074E-005
                    27  5.891281004011492E-005
                    28  2.761668497672090E-005
                    29  6.539919709971136E-007
                    30 -8.261012842160452E-005
                    31 -7.876581892912895E-006
                    32 -3.153391316158237E-004
                    33  2.972507700872680E-004
                    34  2.727795193231378E-004
                    35 -2.467130644992754E-005
                    36 -2.317334283948540E-003
                    37 -6.157852003195292E-004
                    38 -3.923585373219532E-004
                    39  1.668084426480589E-004
                    40 -1.190656364147272E-004
                    41  1.041563166544045E-003
                    42  4.641807166210996E-003
                    43  6.301364497949443E-004
                    44 -3.546272260250127E-003
                    45 -1.381143405079583E-004
                    46  2.692208856583090E-006
                    47  1.486041092176315E-005
                    48  1.424569076732114E-004
                    49  3.206646306901540E-005
                    50  5.598260291658534E-004
                    51  8.093547907626127E-004
                    52 -9.777035600910828E-005
                    53 -1.978846102167248E-004
                    54 -2.649255769222323E-004
                    55  5.119599122403267E-005
                    56 -3.325225066907144E-005
                    57 -6.510464181160837E-006
                    58  5.792770356335326E-005
                    59 -1.941336947026335E-006
                    60 -3.792126933440750E-005
                    61  1.374230258311273E-006
                    62 -7.965440385116558E-004
                    63 -2.654734814154144E-003
                    64 -8.808928715123454E-005
                    65  2.892048412342564E-003
                    66 -1.915072730515616E-004
                    67 -2.931503460529654E-004
                    68 -3.253782787564799E-004
                    69  8.647187250605349E-004
                    70 -3.534243566184628E-005
                    71  7.265403532671454E-004
                    72  1.744071923361150E-003
                    73  9.507224109902143E-005
                    74 -1.546640921906930E-003
                    75 -4.324252316547049E-005
                    76 -4.777639121251868E-005
                    77 -2.579069868091790E-006
                    78  7.740928462025157E-005
                    79  8.179661115151079E-006
                    80  4.984917175550201E-004
                    81  1.479183407174339E-004
                    82 -9.601396368140626E-005
                    83 -6.952683766774804E-005
                    84  3.267465683172124E-006
                    85 -2.567948061562434E-005
                    86 -1.530107661415994E-004
                    87  1.484374682030330E-006
                    88  1.166106058800152E-005
                    89  2.157081840721601E-005
                    90 -7.438722606522048E-005
                    91 -7.841232644177668E-006
                    92  4.000500977959689E-005
                    93 -1.833226317174371E-004
                    94  3.269714899149412E-004
                    95 -1.332726999379581E-003
                    96  3.140557114509946E-004
                    97 -2.959622147346325E-004
                    98  2.219506610344505E-004
                    99  2.030856352452689E-004
                   100  2.982564964686077E-006
                   101  5.394159520559610E-004
                   102 -2.440253660638948E-003
                   103 -9.557224895234843E-005
                   104  1.963133358749612E-004
                   105 -4.984379697827107E-005
                   106 -9.061049540665346E-006
                   107  6.795087769958875E-006
                   108  2.956197757991998E-005
                   109  1.725359157004961E-006
                   110 -1.373013522514714E-004
                   111 -1.986760307393057E-004
                   112  3.552147260405183E-005
                   113 -2.423122781579356E-004
                   114  3.101130556045574E-005
                   115 -2.928819742365616E-005
                   116  5.538042220271201E-005
                   117  5.311227084456544E-006
                   118  1.507864654038776E-005
                   119 -1.221128897458784E-005
                   120 -3.770384452408253E-006
                   121 -6.803573055026979E-006
                   122 -3.278009036150683E-004
                   123 -9.973804667174485E-004
                   124  1.196738645659971E-004
                   125  9.546996874957509E-004
                   126 -1.997375539337561E-004
                   127 -4.787073698968556E-005
                   128 -5.443595039335976E-005
                   129  5.692355436750484E-004
                   130 -2.595511205888311E-005
                   131  3.040276470389377E-004
                   132  2.863053896725765E-003
                   133  2.496295993210678E-005
                   134  4.834364571259917E-004
                   135  3.846391522403719E-005
                   136 -3.753463532838447E-006
                   137 -4.413564368902868E-006
                   138 -2.221252421610102E-005
                   139  8.675498688132587E-006
                   140  2.599763651316440E-004
                   141  3.778167626489876E-004
                   142  2.915929956421136E-006
                   143 -4.048932502798582E-004
                   144 -2.934469143037921E-005
                   145 -3.779388252251687E-005
                   146 -2.773158120276380E-005
                   147 -5.112859180076762E-006
                   148 -1.368544011091749E-005
                   149 -4.957739549537152E-006
                   150 -9.024955843368713E-005
                   151  2.592255549751235E-007
                   152 -1.444357299403517E-004
                   153 -3.179724600526266E-004
                   154 -5.813747566065421E-005
                   155  5.792545165161419E-004
                   156 -2.103588027359894E-004
                   157 -2.187383872380445E-005
                   158 -5.418102811232604E-005
                   159 -2.667623256247182E-004
                   160 -3.133693835061519E-005
                   161  2.545892104997357E-004
                   162 -1.203756710055124E-003
                   163 -5.217367648896575E-005
                   164  9.172113165476514E-004
                   165 -2.359042828993006E-005
                   166  9.492546926669798E-006
                   167  1.298806198541946E-006
                   168  2.280202697282638E-005
                   169  6.269548266962777E-006
                   170 -8.796104590436349E-005
                   171  1.131462839256180E-005
                   172  1.379068828817230E-005
                   173  6.249012624249086E-005
                   174  7.595261278642047E-006
                   175 -1.394278325519225E-005
                   176 -1.619222435895668E-006
                   177 -1.169712518390915E-006
                   178 -9.345447535125498E-006
                   179 -3.381407292960592E-007
                   180  7.314855496414526E-006
                   181 -1.469307887281467E-006
                   182 -1.613279427799260E-004
                   183 -4.983074193889982E-004
                   184  4.021149305587298E-005
                   185  2.134717718202275E-004
                   186 -2.561265236127484E-005
                   187  6.388047681815365E-005
                   188 -8.848589515123287E-005
                   189  9.534151520111907E-005
                   190 -2.657033969973662E-005
                   191  4.311541876978974E-004
                   192 -4.676745540042561E-004
                   193 -1.917060898639590E-004
                   194  2.234387940913410E-003
                   195 -3.124824938653511E-006
                   196  5.544934308497354E-006
                   197  6.412480527221698E-007
                   198 -2.932708905505998E-007
                   199  1.586673976627290E-007
                   200 -1.323988565507257E-004
                   201 -3.467602807700554E-004
                   202  1.635621875225675E-005
                   203  6.356430467940022E-005
                   204  3.114411595563677E-005
                   205  3.076091795694454E-006
                   206  4.790310340748941E-006
                   207 -1.543079947052788E-006
                   208  2.522033691152516E-005
                   209 -2.101432600644991E-006
                   210 -4.257107891092550E-006
                   211 -2.904496343599027E-006
                   212  2.276286825475963E-005
                   213 -8.214659611756532E-004
                   214  1.066533606615983E-004
                   215  2.532325436572268E-004
                   216 -4.463972320974912E-005
                   217  1.144435106526474E-003
                   218 -1.263606365787336E-003
                   219  1.420630053639528E-004
                   220 -4.943812900207156E-005
                   221 -3.349193298413370E-004
                   222 -3.445454408153753E-004
                   223 -2.675483714468337E-004
                   224 -1.043258656314699E-004
                   225 -4.488502719747256E-006
                   226  5.233665423638857E-005
                   227 -1.689749341956801E-004
                   228 -5.972872405944728E-004
                   229 -2.336657832782038E-005
                   230  9.657706391314379E-006
                   231 -5.685421795663480E-005
                   232  1.208611542019736E-004
                   233 -7.284053720148472E-004
                   234 -2.322222507211032E-006
                   235 -1.483013371810095E-006
                   236  1.023233045492291E-005
                   237 -1.164376577961180E-004
                   238 -2.243836706873214E-004
                   239  1.923813073224414E-005
                   240 -2.851569913960455E-006
                   241  2.435199202529134E-005
                   242 -4.382056352938862E-005
                   243  1.325295466297823E-004
                   244  3.137354216880242E-005
                   245  2.917636334395615E-006
                   246  1.826398768559321E-006
 Sym= __2_A__
 Ene=   2.00000000000000     
 Spin= Alpha
 Occup=    1.00000000000000     
                     1  1.814722996894191E-006
                     2 -9.562909916469442E-005
                     3  1.008558257435617E-003
                     4 -2.046598029453154E-005
                     5  1.189706686711183E-003
                     6  1.358112985737611E-003
                     7 -1.780646869601773E-004
                     8 -1.797548533042147E-005
                     9 -1.559702129983715E-004
                    10  1.020156232509626E-004
                    11 -5.936838905500253E-005
                    12  1.973204011374243E-004
                    13  1.472618626684240E-004
                    14 -3.262221632739323E-005
                    15 -5.451279223430151E-005
                    16  2.010343285192162E-005
                    17 -3.989130765402440E-006
                    18  4.748689887097996E-005
                    19 -4.186093489325324E-007
                    20  6.806057850735317E-005
                    21 -6.428096549934522E-005
                    22  1.758420813259359E-005
                    23  1.189403779648711E-004
                    24 -5.224409340997523E-005
                    25 -4.882643404841459E-005
                    26  1.251720768869715E-004
                    27  1.942429317366523E-005
                    28 -3.747274988319136E-005
                    29 -1.103978314712428E-005
                    30  1.197556349446990E-004
                    31  2.709487509642606E-005
                    32   1.00086125809197     
                    33  8.567346908473727E-003
                    34  2.856545470796817E-003
                    35 -8.421465080059776E-003
                    36 -1.695456326572916E-003
                    37  2.184705831296726E-004
                    38  1.180728116740797E-004
                    39  9.710931311606766E-004
                    40 -9.294620935915721E-005
                    41 -2.890948451336502E-004
                    42  2.691873815076546E-003
                    43 -1.000602382742868E-004
                    44  3.511364747073417E-005
                    45  3.126735281696516E-004
                    46  9.181452543838189E-006
                    47 -6.783833241169094E-005
                    48  3.376542923154858E-004
                    49  2.100447566526886E-006
                    50 -9.736388079172398E-004
                    51 -2.687378143622140E-004
                    52  1.703751285804659E-004
                    53 -1.589805550007544E-004
                    54  1.636428570596385E-005
                    55 -1.734355281317844E-005
                    56  2.643794294686191E-004
                    57 -7.479069545674126E-006
                    58 -2.746759492070936E-005
                    59 -2.613715338165931E-005
                    60  6.719464743560785E-005
                    61  7.898400069583713E-006
                    62  1.563042977516714E-002
                    63 -1.612501756749427E-003
                    64 -2.872965784116407E-004
                    65  2.844604041566094E-003
                    66 -2.425162283767289E-004
                    67 -1.791159682773651E-005
                    68  3.783859133985519E-004
                    69  3.519972235113812E-005
                    70 -3.532770821519652E-005
                    71  3.351070463159943E-004
                    72  3.506501504429216E-004
                    73  2.018237959961240E-004
                    74 -1.741800667158530E-003
                    75  3.875466330796072E-006
                    76  2.511180514906268E-005
                    77  2.801503980853686E-006
                    78 -4.405926322638870E-005
                    79 -2.372211543040493E-006
                    80 -4.950239012731990E-004
                    81 -3.806241910734236E-004
                    82  2.249570572917269E-005
                    83  7.992684388399832E-004
                    84  3.429422737886750E-005
                    85  3.726549505298351E-005
                    86  1.050409357361218E-004
                    87  1.728557238945934E-005
                    88 -2.481992712874174E-005
                    89 -2.226229747130451E-005
                    90 -2.537108966830149E-005
                    91  3.216306483854637E-006
                    92  1.786054244815742E-002
                    93 -1.652285196550062E-003
                    94 -3.363967407787413E-004
                    95  3.303968355783796E-003
                    96 -2.633025288622957E-004
                    97  4.533481163726228E-005
                    98 -3.604977191712169E-004
                    99 -8.596202634709452E-005
                   100  7.152119344346262E-005
                   101 -7.180711320204893E-004
                   102  2.259891201946562E-004
                   103 -1.191308921022978E-004
                   104  1.587600518709234E-003
                   105  8.553742653738500E-006
                   106 -6.937958723784095E-006
                   107  1.711568537238858E-006
                   108 -2.790653868552878E-005
                   109 -6.936264149371469E-007
                   110 -2.355921121258465E-004
                   111  4.890678593746966E-004
                   112 -3.680757867019760E-005
                   113  6.417827396142560E-004
                   114 -4.122339416444309E-005
                   115 -4.827368037471203E-005
                   116  8.977899105794912E-005
                   117 -9.186454808126908E-006
                   118  2.004988997130042E-005
                   119 -1.079600891926359E-005
                   120 -3.079859605550741E-005
                   121 -4.879395980554216E-007
                   122 -8.287252539253700E-005
                   123 -7.573802593107103E-004
                   124  2.424327977781418E-004
                   125 -3.368994416631238E-004
                   126 -1.214168188124932E-004
                   127  6.687997053174360E-006
                   128 -5.422337918094565E-005
                   129  6.177038651194904E-004
                   130 -7.167210607385102E-006
                   131  6.773748500158312E-005
                   132  5.116519243171624E-004
                   133 -4.603570052622512E-005
                   134  4.059526739574765E-004
                   135  1.234476010932617E-006
                   136  3.748518271154465E-005
                   137  3.105160277090738E-006
                   138 -3.729294264459230E-005
                   139 -4.451876331355952E-006
                   140  1.924597622732408E-004
                   141 -2.753104570547478E-004
                   142 -1.017748982790106E-005
                   143 -2.343047137299020E-004
                   144  2.572834916212738E-005
                   145 -1.203127382805172E-005
                   146  1.267826064418287E-005
                   147 -2.310277073513633E-006
                   148 -5.148953989890404E-006
                   149 -3.719234206646409E-006
                   150 -2.055120547169994E-005
                   151  1.347675774233673E-006
                   152 -2.369545036054654E-005
                   153 -7.794936247025063E-004
                   154  2.371937349754519E-004
                   155 -2.046480303069657E-004
                   156 -1.008497851060072E-004
                   157 -1.053253633251675E-005
                   158  3.628376313921097E-005
                   159  5.049782987828779E-004
                   160  1.009355326818680E-005