[Molden Format]
[Atoms] AU
  N     1    7     0.0000000000    0.0000000000   -4.2907334100        
  C     2    6     0.0000000000    0.0000000000   -1.7772236300        
  C     3    6     0.0000000000   -2.3389203600   -0.4111016300        
  C     4    6     0.0000000000    2.3389203600   -0.4111016300        
  C     5    6     0.0000000000   -2.2998668500    2.1639215300        
  C     6    6     0.0000000000    2.2998668500    2.1639215300        
  C     7    6     0.0000000000    0.0000000000    3.4755251800        
  H     8    1     0.0000000000   -1.2866404800   -5.0844826000        
  H     9    1     0.0000000000    1.2866404800   -5.0844826000        
  H    10    1     0.0000000000   -4.0745407300   -1.4447408500        
  H    11    1     0.0000000000    4.0745407300   -1.4447408500        
  H    12    1     0.0000000000   -4.0420632100    3.1963889500        
  H    13    1     0.0000000000    4.0420632100    3.1963889500        
  H    14    1     0.0000000000    0.0000000000    5.5020335600        
[5D]
[7F]
[GTO]
  1  0
   s    12 1.00
  0.114200D+05  0.172695D-04
  0.171200D+04  0.134411D-03
  0.389300D+03  0.694561D-03
  0.110000D+03  0.278531D-02
  0.355700D+02  0.863457D-02
  0.125400D+02  0.199805D-01
  0.464400D+01  0.262908D-01
  0.129300D+01 -0.243845D-01
  0.511800D+00 -0.924934D-01
  0.178700D+00 -0.339683D+00
  0.246240D-01  0.345111D+00
  0.112530D-01  0.752750D+00
   s    10 1.00
  0.114200D+05  0.523000D-03
  0.171200D+04  0.404500D-02
  0.389300D+03  0.207750D-01
  0.110000D+03  0.807269D-01
  0.355700D+02  0.233074D+00
  0.125400D+02  0.433501D+00
  0.464400D+01  0.347472D+00
  0.129300D+01  0.412620D-01
  0.511800D+00 -0.850799D-02
  0.178700D+00  0.238400D-02
   s    10 1.00
  0.114200D+05 -0.115000D-03
  0.171200D+04 -0.895000D-03
  0.389300D+03 -0.462400D-02
  0.110000D+03 -0.185280D-01
  0.355700D+02 -0.573390D-01
  0.125400D+02 -0.132076D+00
  0.464400D+01 -0.172510D+00
  0.129300D+01  0.151814D+00
  0.511800D+00  0.599944D+00
  0.178700D+00  0.387462D+00
   s     1 1.00
  0.129300D+01  0.100000D+01
   s     1 1.00
  0.178700D+00  0.100000D+01
   p     5 1.00
  0.266300D+02  0.146700D-01
  0.594800D+01  0.917640D-01
  0.174200D+01  0.298683D+00
  0.555000D+00  0.498487D+00
  0.172500D+00  0.337023D+00
   p     1 1.00
  0.174200D+01  0.100000D+01
   p     1 1.00
  0.555000D+00  0.100000D+01
   d     1 1.00
  0.165400D+01  0.100000D+01
   d     1 1.00
  0.469000D+00  0.100000D+01
   f     1 1.00
  0.109300D+01  0.100000D+01
  
  2  0
   s    10 1.00
  0.823600D+04  0.531000D-03
  0.123500D+04  0.410800D-02
  0.280800D+03  0.210870D-01
  0.792700D+02  0.818530D-01
  0.255900D+02  0.234817D+00
  0.899700D+01  0.434401D+00
  0.331900D+01  0.346129D+00
  0.905900D+00  0.393780D-01
  0.364300D+00 -0.898300D-02
  0.128500D+00  0.238500D-02
   s    10 1.00
  0.823600D+04 -0.113000D-03
  0.123500D+04 -0.878000D-03
  0.280800D+03 -0.454000D-02
  0.792700D+02 -0.181330D-01
  0.255900D+02 -0.557600D-01
  0.899700D+01 -0.126895D+00
  0.331900D+01 -0.170352D+00
  0.905900D+00  0.140382D+00
  0.364300D+00  0.598684D+00
  0.128500D+00  0.395389D+00
   s     1 1.00
  0.905900D+00  0.100000D+01
   s     1 1.00
  0.364300D+00  0.100000D+01
   p     5 1.00
  0.187100D+02  0.140310D-01
  0.413300D+01  0.868660D-01
  0.120000D+01  0.290216D+00
  0.382700D+00  0.501008D+00
  0.120900D+00  0.343406D+00
   p     1 1.00
  0.382700D+00  0.100000D+01
   p     1 1.00
  0.120900D+00  0.100000D+01
   d     1 1.00
  0.109700D+01  0.100000D+01
   d     1 1.00
  0.318000D+00  0.100000D+01
   f     1 1.00
  0.761000D+00  0.100000D+01
  
  3  0
   s    10 1.00
  0.823600D+04  0.531000D-03
  0.123500D+04  0.410800D-02
  0.280800D+03  0.210870D-01
  0.792700D+02  0.818530D-01
  0.255900D+02  0.234817D+00
  0.899700D+01  0.434401D+00
  0.331900D+01  0.346129D+00
  0.905900D+00  0.393780D-01
  0.364300D+00 -0.898300D-02
  0.128500D+00  0.238500D-02
   s    10 1.00
  0.823600D+04 -0.113000D-03
  0.123500D+04 -0.878000D-03
  0.280800D+03 -0.454000D-02
  0.792700D+02 -0.181330D-01
  0.255900D+02 -0.557600D-01
  0.899700D+01 -0.126895D+00
  0.331900D+01 -0.170352D+00
  0.905900D+00  0.140382D+00
  0.364300D+00  0.598684D+00
  0.128500D+00  0.395389D+00
   s     1 1.00
  0.905900D+00  0.100000D+01
   s     1 1.00
  0.364300D+00  0.100000D+01
   p     5 1.00
  0.187100D+02  0.140310D-01
  0.413300D+01  0.868660D-01
  0.120000D+01  0.290216D+00
  0.382700D+00  0.501008D+00
  0.120900D+00  0.343406D+00
   p     1 1.00
  0.382700D+00  0.100000D+01
   p     1 1.00
  0.120900D+00  0.100000D+01
   d     1 1.00
  0.109700D+01  0.100000D+01
   d     1 1.00
  0.318000D+00  0.100000D+01
   f     1 1.00
  0.761000D+00  0.100000D+01
  
  4  0
   s    10 1.00
  0.823600D+04  0.531000D-03
  0.123500D+04  0.410800D-02
  0.280800D+03  0.210870D-01
  0.792700D+02  0.818530D-01
  0.255900D+02  0.234817D+00
  0.899700D+01  0.434401D+00
  0.331900D+01  0.346129D+00
  0.905900D+00  0.393780D-01
  0.364300D+00 -0.898300D-02
  0.128500D+00  0.238500D-02
   s    10 1.00
  0.823600D+04 -0.113000D-03
  0.123500D+04 -0.878000D-03
  0.280800D+03 -0.454000D-02
  0.792700D+02 -0.181330D-01
  0.255900D+02 -0.557600D-01
  0.899700D+01 -0.126895D+00
  0.331900D+01 -0.170352D+00
  0.905900D+00  0.140382D+00
  0.364300D+00  0.598684D+00
  0.128500D+00  0.395389D+00
   s     1 1.00
  0.905900D+00  0.100000D+01
   s     1 1.00
  0.364300D+00  0.100000D+01
   p     5 1.00
  0.187100D+02  0.140310D-01
  0.413300D+01  0.868660D-01
  0.120000D+01  0.290216D+00
  0.382700D+00  0.501008D+00
  0.120900D+00  0.343406D+00
   p     1 1.00
  0.382700D+00  0.100000D+01
   p     1 1.00
  0.120900D+00  0.100000D+01
   d     1 1.00
  0.109700D+01  0.100000D+01
   d     1 1.00
  0.318000D+00  0.100000D+01
   f     1 1.00
  0.761000D+00  0.100000D+01
  
  5  0
   s    10 1.00
  0.823600D+04  0.531000D-03
  0.123500D+04  0.410800D-02
  0.280800D+03  0.210870D-01
  0.792700D+02  0.818530D-01
  0.255900D+02  0.234817D+00
  0.899700D+01  0.434401D+00
  0.331900D+01  0.346129D+00
  0.905900D+00  0.393780D-01
  0.364300D+00 -0.898300D-02
  0.128500D+00  0.238500D-02
   s    10 1.00
  0.823600D+04 -0.113000D-03
  0.123500D+04 -0.878000D-03
  0.280800D+03 -0.454000D-02
  0.792700D+02 -0.181330D-01
  0.255900D+02 -0.557600D-01
  0.899700D+01 -0.126895D+00
  0.331900D+01 -0.170352D+00
  0.905900D+00  0.140382D+00
  0.364300D+00  0.598684D+00
  0.128500D+00  0.395389D+00
   s     1 1.00
  0.905900D+00  0.100000D+01
   s     1 1.00
  0.364300D+00  0.100000D+01
   p     5 1.00
  0.187100D+02  0.140310D-01
  0.413300D+01  0.868660D-01
  0.120000D+01  0.290216D+00
  0.382700D+00  0.501008D+00
  0.120900D+00  0.343406D+00
   p     1 1.00
  0.382700D+00  0.100000D+01
   p     1 1.00
  0.120900D+00  0.100000D+01
   d     1 1.00
  0.109700D+01  0.100000D+01
   d     1 1.00
  0.318000D+00  0.100000D+01
   f     1 1.00
  0.761000D+00  0.100000D+01
  
  6  0
   s    10 1.00
  0.823600D+04  0.531000D-03
  0.123500D+04  0.410800D-02
  0.280800D+03  0.210870D-01
  0.792700D+02  0.818530D-01
  0.255900D+02  0.234817D+00
  0.899700D+01  0.434401D+00
  0.331900D+01  0.346129D+00
  0.905900D+00  0.393780D-01
  0.364300D+00 -0.898300D-02
  0.128500D+00  0.238500D-02
   s    10 1.00
  0.823600D+04 -0.113000D-03
  0.123500D+04 -0.878000D-03
  0.280800D+03 -0.454000D-02
  0.792700D+02 -0.181330D-01
  0.255900D+02 -0.557600D-01
  0.899700D+01 -0.126895D+00
  0.331900D+01 -0.170352D+00
  0.905900D+00  0.140382D+00
  0.364300D+00  0.598684D+00
  0.128500D+00  0.395389D+00
   s     1 1.00
  0.905900D+00  0.100000D+01
   s     1 1.00
  0.364300D+00  0.100000D+01
   p     5 1.00
  0.187100D+02  0.140310D-01
  0.413300D+01  0.868660D-01
  0.120000D+01  0.290216D+00
  0.382700D+00  0.501008D+00
  0.120900D+00  0.343406D+00
   p     1 1.00
  0.382700D+00  0.100000D+01
   p     1 1.00
  0.120900D+00  0.100000D+01
   d     1 1.00
  0.109700D+01  0.100000D+01
   d     1 1.00
  0.318000D+00  0.100000D+01
   f     1 1.00
  0.761000D+00  0.100000D+01
  
  7  0
   s    10 1.00
  0.823600D+04  0.531000D-03
  0.123500D+04  0.410800D-02
  0.280800D+03  0.210870D-01
  0.792700D+02  0.818530D-01
  0.255900D+02  0.234817D+00
  0.899700D+01  0.434401D+00
  0.331900D+01  0.346129D+00
  0.905900D+00  0.393780D-01
  0.364300D+00 -0.898300D-02
  0.128500D+00  0.238500D-02
   s    10 1.00
  0.823600D+04 -0.113000D-03
  0.123500D+04 -0.878000D-03
  0.280800D+03 -0.454000D-02
  0.792700D+02 -0.181330D-01
  0.255900D+02 -0.557600D-01
  0.899700D+01 -0.126895D+00
  0.331900D+01 -0.170352D+00
  0.905900D+00  0.140382D+00
  0.364300D+00  0.598684D+00
  0.128500D+00  0.395389D+00
   s     1 1.00
  0.905900D+00  0.100000D+01
   s     1 1.00
  0.364300D+00  0.100000D+01
   p     5 1.00
  0.187100D+02  0.140310D-01
  0.413300D+01  0.868660D-01
  0.120000D+01  0.290216D+00
  0.382700D+00  0.501008D+00
  0.120900D+00  0.343406D+00
   p     1 1.00
  0.382700D+00  0.100000D+01
   p     1 1.00
  0.120900D+00  0.100000D+01
   d     1 1.00
  0.109700D+01  0.100000D+01
   d     1 1.00
  0.318000D+00  0.100000D+01
   f     1 1.00
  0.761000D+00  0.100000D+01
  
  8  0
   s     4 1.00
  0.130100D+02  0.196850D-01
  0.196200D+01  0.137977D+00
  0.444600D+00  0.478148D+00
  0.122000D+00  0.501240D+00
   s     1 1.00
  0.122000D+00  0.100000D+01
   p     1 1.00
  0.727000D+00  0.100000D+01
  
  9  0
   s     4 1.00
  0.130100D+02  0.196850D-01
  0.196200D+01  0.137977D+00
  0.444600D+00  0.478148D+00
  0.122000D+00  0.501240D+00
   s     1 1.00
  0.122000D+00  0.100000D+01
   p     1 1.00
  0.727000D+00  0.100000D+01
  
 10  0
   s     4 1.00
  0.130100D+02  0.196850D-01
  0.196200D+01  0.137977D+00
  0.444600D+00  0.478148D+00
  0.122000D+00  0.501240D+00
   s     1 1.00
  0.122000D+00  0.100000D+01
   p     1 1.00
  0.727000D+00  0.100000D+01
  
 11  0
   s     4 1.00
  0.130100D+02  0.196850D-01
  0.196200D+01  0.137977D+00
  0.444600D+00  0.478148D+00
  0.122000D+00  0.501240D+00
   s     1 1.00
  0.122000D+00  0.100000D+01
   p     1 1.00
  0.727000D+00  0.100000D+01
  
 12  0
   s     4 1.00
  0.130100D+02  0.196850D-01
  0.196200D+01  0.137977D+00
  0.444600D+00  0.478148D+00
  0.122000D+00  0.501240D+00
   s     1 1.00
  0.122000D+00  0.100000D+01
   p     1 1.00
  0.727000D+00  0.100000D+01
  
 13  0
   s     4 1.00
  0.130100D+02  0.196850D-01
  0.196200D+01  0.137977D+00
  0.444600D+00  0.478148D+00
  0.122000D+00  0.501240D+00
   s     1 1.00
  0.122000D+00  0.100000D+01
   p     1 1.00
  0.727000D+00  0.100000D+01
  
 14  0
   s     4 1.00
  0.130100D+02  0.196850D-01
  0.196200D+01  0.137977D+00
  0.444600D+00  0.478148D+00
  0.122000D+00  0.501240D+00
   s     1 1.00
  0.122000D+00  0.100000D+01
   p     1 1.00
  0.727000D+00  0.100000D+01
  
[MO]
 Sym= __1_A__
 Ene=   1.00000000000000     
 Spin= Alpha
 Occup=    1.00000000000000     
                     1  6.400499648957073E-005
                     2  0.997299357701833     
                     3  1.529778668303411E-002
                     4  2.851908030060139E-003
                     5 -1.661133820390576E-003
                     6  8.326869589067032E-012
                     7  2.575469282836412E-008
                     8  3.589091320237243E-003
                     9 -2.551670567870467E-012
                    10  1.709097987471824E-008
                    11 -4.474862214190498E-004
                    12 -9.446969636144522E-012
                    13 -1.656546034516524E-007
                    14 -2.005962283798417E-004
                    15  2.094639258325487E-004
                    16 -2.192836316646507E-012
                    17  7.970289582565672E-009
                    18 -7.551539845053978E-004
                    19  1.236806122894141E-013
                    20  1.628921894251827E-004
                    21  1.864551012386129E-012
                    22 -3.493856225110977E-008
                    23  3.434616072168430E-004
                    24  1.625538076082923E-014
                    25 -5.191476532662434E-004
                    26 -3.119809036634601E-013
                    27  1.132182065806101E-008
                    28  5.930933470283400E-004
                    29  2.389758841781605E-013
                    30 -2.660327883637461E-012
                    31 -1.609981403779142E-009
                    32 -3.887071631627132E-004
                    33  3.204061741203229E-003
                    34  1.943628332257579E-004
                    35 -3.452002850021045E-004
                    36 -3.944755724519362E-012
                    37  5.265904553688299E-008
                    38 -8.235687660218408E-003
                    39  4.061693217156489E-012
                    40 -1.567360174070251E-007
                    41  2.876070656043352E-004
                    42 -9.441203756234259E-012
                    43 -7.184294502037842E-009
                    44  2.968410017456605E-003
                    45  3.704702327354967E-004
                    46 -2.806557000529096E-014
                    47  2.284175313844146E-008
                    48  1.606101608357881E-004
                    49  2.783392718478117E-012
                    50 -1.125810091913591E-005
                    51  3.494118004640404E-013
                    52 -3.320924774008478E-007
                    53 -4.940319663788798E-004
                    54 -4.371672955515416E-012
                    55 -1.841858631799820E-004
                    56  2.191169525813030E-012
                    57 -3.833159210402712E-009
                    58  1.724012633270514E-004
                    59 -6.979928700815830E-013
                    60  1.285417808460211E-012
                    61 -3.555274337823560E-009
                    62 -1.752958285664790E-004
                    63 -1.789520213902216E-003
                    64  3.662520023748922E-005
                    65  5.759402188169086E-004
                    66 -3.440967887312905E-012
                    67 -9.603211413392439E-004
                    68  1.286120664170205E-003
                    69  1.193401965014431E-012
                    70  2.044472914878637E-005
                    71  5.368639322572042E-004
                    72  4.225010150722457E-012
                    73 -1.498635335723010E-005
                    74  1.869639037643794E-004
                    75  1.091541595192269E-004
                    76 -2.726104339990543E-012
                    77 -3.034071016852032E-005
                    78  3.590346347576908E-005
                    79 -1.983902321658861E-012
                    80 -1.534378326214816E-004
                    81  3.230942675898978E-012
                    82  2.960902571964552E-004
                    83 -9.451412872880798E-005
                    84  9.546109161960337E-014
                    85 -1.135340648411026E-004
                    86  4.243075815331352E-014
                    87 -4.714395992756308E-005
                    88  3.050096483076382E-005
                    89  1.032634844739971E-012
                    90 -6.906485398861234E-013
                    91  6.182350915729401E-006
                    92 -1.752006240171701E-004
                    93 -1.789147273657774E-003
                    94  3.702000955245806E-005
                    95  5.745314630271319E-004
                    96  9.379506896885418E-012
                    97  9.603792299127960E-004
                    98  1.286390059096706E-003
                    99 -1.079356734189081E-011
                   100 -2.079128174079897E-005
                   101  5.352878510173938E-004
                   102  7.355872987374069E-012
                   103  1.363049584354427E-005
                   104  1.871951027667888E-004
                   105  1.090642152716718E-004
                   106 -3.753237244343975E-013
                   107  3.038221730751393E-005
                   108  3.590962552843066E-005
                   109  2.125213409376873E-012
                   110 -1.544472888713591E-004
                   111 -1.810965596706447E-012
                   112 -2.963377922893603E-004
                   113 -9.475311791815441E-005
                   114 -5.427503780840201E-012
                   115 -1.133807997855254E-004
                   116 -3.627066235663767E-012
                   117  4.713032894752370E-005
                   118  3.049287072910548E-005
                   119  1.204515942234690E-012
                   120 -1.133286784398134E-012
                   121 -6.180812393111505E-006
                   122 -1.328648523606958E-004
                   123  1.626266830715246E-004
                   124  1.146475579916313E-004
                   125  9.055209357398394E-005
                   126 -1.343914377077010E-011
                   127  6.055371334495332E-005
                   128 -9.563644927980590E-004
                   129  1.167732144270828E-011
                   130 -4.202416826045997E-005
                   131  3.151746234320380E-004
                   132 -4.450020315291609E-012
                   133 -9.053915954731441E-005
                   134  4.760346380169322E-004
                   135 -1.940708015390168E-005
                   136  3.362739570503115E-013
                   137 -4.880723548322382E-007
                   138  3.676337997239124E-006
                   139  2.970829609760667E-013
                   140 -1.337084453057822E-004
                   141  1.463162464262109E-012
                   142  1.983979158218680E-004
                   143  1.906132552211298E-005
                   144 -1.803841031550417E-012
                   145 -4.011680338425623E-005
                   146  1.398018088514550E-012
                   147  4.117996619369711E-006
                   148 -7.796262624680755E-006
                   149  3.083329991080634E-012
                   150  8.390883191656235E-013
                   151 -2.007887290806731E-006
                   152 -1.341508772001729E-004
                   153  1.581521069344403E-004
                   154  1.136770397750570E-004
                   155  9.752446976778042E-005
                   156  9.574552482796307E-012
                   157 -6.052680633735979E-005
                   158 -9.562503548166917E-004
                   159 -7.769402996709775E-012
                   160  4.164158985279219E-005
                   161  3.141433658148798E-004
                   162 -1.067707522078346E-011
                   163  9.194791776499945E-005
                   164  4.760994624277158E-004
                   165 -1.927535692389838E-005
                   166 -2.708259775413758E-012
                   167  4.834893959403322E-007
                   168  3.562937028868574E-006
                   169 -1.462409336151515E-012
                   170 -1.332814835813534E-004
                   171 -1.217436228512100E-013
                   172 -1.988574026150510E-004
                   173  1.905659891170579E-005
                   174  1.511383982486628E-012
                   175 -3.991343897108420E-005
                   176  2.660559989844043E-012
                   177 -4.082468111614979E-006
                   178 -7.900711564211689E-006
                   179 -4.410905376006831E-012
                   180  2.574745263696137E-013
                   181  2.012103322359365E-006
                   182 -1.115250412244737E-004
                   183 -2.882905686519844E-004
                   184  2.384731878928738E-005
                   185  1.374454721156354E-004
                   186 -4.634579365675625E-012
                   187  1.264305283456875E-007
                   188 -3.308773303103617E-005
                   189  2.849417276158009E-012
                   190 -6.796111453680586E-007
                   191 -2.996828048333833E-005
                   192  9.735748973823285E-012
                   193  1.970528557566571E-007
                   194  2.385678832167903E-004
                   195  2.410876403395913E-005
                   196  4.633622946733080E-012
                   197  4.945271707806019E-008
                   198  1.083760624290188E-005
                   199 -2.113418255519358E-012
                   200  5.992249807269583E-005
                   201 -2.699138742973880E-012
                   202  3.028392369738748E-007
                   203  3.821439478038496E-005
                   204  3.252009713380363E-012
                   205 -1.557739343882047E-005
                   206  3.761958799678083E-012
                   207 -1.466388306019709E-008
                   208  9.919401094150881E-006
                   209 -1.024026090152853E-012
                   210 -1.103981907248781E-012
                   211  4.294404927614073E-008
                   212  6.362029800559755E-003
                   213 -3.724491964984417E-003
                   214  8.024634910125195E-013
                   215  2.188120567637247E-004
                   216  2.397620246092802E-004
                   217  6.362230935812058E-003
                   218 -3.724589683152721E-003
                   219  1.836953735693733E-012
                   220 -2.188740266747744E-004
                   221  2.398210847176571E-004
                   222 -8.740965440294772E-004
                   223  3.232549659644513E-004
                   224  2.284130516263555E-013
                   225 -3.266462256931068E-005
                   226 -6.666710233914564E-005
                   227 -8.742901346877912E-004
                   228  3.240771389856732E-004
                   229  3.137260424399681E-012
                   230  3.262418930950553E-005
                   231 -6.673377541997426E-005
                   232 -2.697821403781236E-004
                   233 -2.757015574867983E-004
                   234 -1.092446733361734E-012
                   235 -7.293850191172464E-006
                   236  1.014586834188508E-005
                   237 -2.699639209297612E-004
                   238 -2.759990916644918E-004
                   239  3.254946887695277E-012
                   240  7.428823812503293E-006
                   241  1.024932487872733E-005
                   242  9.544647393193956E-005
                   243 -1.867742785773765E-004
                   244 -2.792280717085977E-012
                   245 -3.384044728535077E-008
                   246  7.113431941951835E-006
 Sym= __2_A__
 Ene=   2.00000000000000     
 Spin= Alpha
 Occup=    1.00000000000000     
                     1 -3.292153233773701E-005
                     2 -2.065804728629597E-004
                     3  1.518694964899317E-003
                     4  1.023728500596293E-004
                     5  1.623678066979848E-003
                     6  9.035349116702007E-012
                     7  4.080065652782723E-009
                     8  2.940658159168476E-003
                     9 -1.124712742952060E-012
                    10 -2.973580553314052E-009
                    11 -5.823350438106828E-005
                    12 -3.333026582787889E-012
                    13  6.343650376951456E-009
                    14 -3.515719881674743E-004
                    15  2.458693173074049E-005
                    16  1.084968836970378E-012
                    17 -2.424346935020135E-011
                    18  6.379417730722802E-005
                    19  5.941455784416282E-014
                    20 -4.209520624946344E-004
                    21  2.720018572523584E-012
                    22 -1.002378564340190E-009
                    23 -4.108008770107858E-004
                    24  2.040612607085341E-012
                    25  1.685013594669513E-004
                    26  1.683984748557460E-012
                    27 -5.450982956261190E-009
                    28 -1.445917527223393E-005
                    29 -6.070092099203858E-014
                    30  1.992370172102262E-012
                    31  2.825466073757767E-010
                    32   1.00105308752624     
                    33  9.161925899121551E-003
                    34  2.674389836124035E-003
                    35 -7.754520641413962E-003
                    36 -6.512923178539408E-012
                    37 -5.131478661103410E-009
                    38 -3.905579992980471E-003
                    39 -1.008001517215534E-011
                    40  4.650123228791160E-010
                    41  1.060422041954727E-003
                    42  1.043554057501202E-011
                    43 -7.733575980662976E-008
                    44  4.624586380785512E-003
                    45  4.544293095027179E-004
                    46 -6.582994480777520E-013
                    47 -3.431923768762603E-009
                    48 -4.336878747332420E-004
                    49  9.517664699630956E-013
                    50  5.444483746663790E-004
                    51 -3.969938259253280E-013
                    52  6.460525667066242E-009
                    53  9.515044777888774E-004
                    54 -9.474213631867534E-012
                    55  3.694257433148306E-004
                    56 -1.597274633452386E-012
                    57  1.943405759510349E-009
                    58 -2.151123174918866E-004
                    59 -5.557581306366013E-013
                    60 -1.553966317178988E-012
                    61  1.804061576809191E-009
                    62  7.255760813191546E-003
                    63 -2.048492202970445E-003
                    64 -2.804838071149112E-004
                    65  3.087341202428949E-003
                    66  7.037547402413554E-013
                    67  1.427435730279786E-004
                    68 -7.991403720732313E-005
                    69  6.966743874462800E-012
                    70  5.987620057694085E-004
                    71  3.900726290867768E-005
                    72  4.925926613109090E-012
                    73 -2.178916695574029E-003
                    74  6.107091610796145E-005
                    75 -1.789447726527143E-005
                    76  2.621886099433248E-013
                    77  1.356939755974286E-005
                    78  2.606016856152116E-005
                    79  2.102156015993439E-013
                    80  7.779630218299486E-004
                    81  1.381910897424499E-011
                    82 -4.339503484402649E-004
                    83 -8.833448804676940E-006
                    84  1.126431577343851E-012
                    85  7.218313771638952E-005
                    86  1.996435716558405E-012
                    87  4.721324716662943E-005
                    88 -1.253980351828664E-004
                    89  6.024865017536071E-013
                    90 -1.620039222555061E-012
                    91  5.040262183162179E-005
                    92  7.255735558650893E-003
                    93 -2.048575914480419E-003
                    94 -2.805241446163101E-004
                    95  3.087534867461578E-003
                    96 -1.674574461485728E-011
                    97 -1.427445028255642E-004
                    98 -7.993489023284885E-005
                    99  2.045674354581072E-011
                   100 -5.987610832309702E-004
                   101  3.912717802669149E-005
                   102 -6.097045051263006E-012
                   103  2.179021301737466E-003
                   104  6.090147540999978E-005
                   105 -1.788020241183155E-005
                   106  5.680766551926285E-013
                   107 -1.357516064168003E-005
                   108  2.605907943882096E-005
                   109  1.465697223030322E-012
                   110  7.780186438461252E-004
                   111 -9.798381404569965E-012
                   112  4.339988381672985E-004
                   113 -8.816984520985583E-006
                   114 -7.547269900343493E-012
                   115  7.217028423446768E-005
                   116  3.272052463758938E-012
                   117 -4.721184296847493E-005
                   118 -1.253952212367188E-004
                   119  4.985450341110791E-012
                   120  4.467365890232284E-013
                   121 -5.040178025120119E-005
                   122 -2.456240664778926E-004
                   123 -8.008295690295768E-004
                   124  2.268386750488414E-004
                   125 -1.044277459949843E-004
                   126  1.153285970526335E-012
                   127 -2.418183829726192E-005
                   128 -2.118358241739420E-004
                   129 -9.226284847000777E-012
                   130 -1.214480503796215E-006
                   131  5.448465301687154E-004
                   132 -1.850503057951605E-011
                   133  3.255414801158618E-004
                   134  7.800819082710018E-004
                   135 -1.509328560910395E-005
                   136 -3.038624190815778E-012
                   137  5.090105846659594E-005
                   138  1.375734187125557E-005
                   139 -7.446381824179301E-013
                   140 -3.023817855823863E-004
                   141  1.047401316891376E-011
                   142 -2.242164966091127E-004
                   143 -1.379082321604098E-005
                   144 -4.467541849951102E-012
                   145 -1.041615187935966E-006
                   146 -3.888985688307829E-012
                   147 -4.024133510621317E-005
                   148 -3.909572773190970E-005
                   149 -3.968151948503692E-012
                   150 -4.785015786026433E-013
                   151 -5.788132040185970E-006
                   152 -2.453630845080354E-004
                   153 -7.999625801605049E-004
                   154  2.269025341375875E-004
                   155 -1.053596371406820E-004
                   156 -1.795979607814800E-011
                   157  2.417318175807689E-005
                   158 -2.118384601112710E-004
                   159  1.603270759120023E-011
                   160  1.257354172872051E-006