[Molden Format]
[Atoms] AU
  N     1    7     0.0000000000    0.0000000000   -4.2907334100        
  C     2    6     0.0000000000    0.0000000000   -1.7772236300        
  C     3    6     0.0000000000   -2.3389203600   -0.4111016300        
  C     4    6     0.0000000000    2.3389203600   -0.4111016300        
  C     5    6     0.0000000000   -2.2998668500    2.1639215300        
  C     6    6     0.0000000000    2.2998668500    2.1639215300        
  C     7    6     0.0000000000    0.0000000000    3.4755251800        
  H     8    1     0.0000000000   -1.2866404800   -5.0844826000        
  H     9    1     0.0000000000    1.2866404800   -5.0844826000        
  H    10    1     0.0000000000   -4.0745407300   -1.4447408500        
  H    11    1     0.0000000000    4.0745407300   -1.4447408500        
  H    12    1     0.0000000000   -4.0420632100    3.1963889500        
  H    13    1     0.0000000000    4.0420632100    3.1963889500        
  H    14    1     0.0000000000    0.0000000000    5.5020335600        
[5D]
[7F]
[GTO]
  1  0
   s    12 1.00
  0.114200D+05  0.172695D-04
  0.171200D+04  0.134411D-03
  0.389300D+03  0.694561D-03
  0.110000D+03  0.278531D-02
  0.355700D+02  0.863457D-02
  0.125400D+02  0.199805D-01
  0.464400D+01  0.262908D-01
  0.129300D+01 -0.243845D-01
  0.511800D+00 -0.924934D-01
  0.178700D+00 -0.339683D+00
  0.246240D-01  0.345111D+00
  0.112530D-01  0.752750D+00
   s    10 1.00
  0.114200D+05  0.523000D-03
  0.171200D+04  0.404500D-02
  0.389300D+03  0.207750D-01
  0.110000D+03  0.807269D-01
  0.355700D+02  0.233074D+00
  0.125400D+02  0.433501D+00
  0.464400D+01  0.347472D+00
  0.129300D+01  0.412620D-01
  0.511800D+00 -0.850799D-02
  0.178700D+00  0.238400D-02
   s    10 1.00
  0.114200D+05 -0.115000D-03
  0.171200D+04 -0.895000D-03
  0.389300D+03 -0.462400D-02
  0.110000D+03 -0.185280D-01
  0.355700D+02 -0.573390D-01
  0.125400D+02 -0.132076D+00
  0.464400D+01 -0.172510D+00
  0.129300D+01  0.151814D+00
  0.511800D+00  0.599944D+00
  0.178700D+00  0.387462D+00
   s     1 1.00
  0.129300D+01  0.100000D+01
   s     1 1.00
  0.178700D+00  0.100000D+01
   p     5 1.00
  0.266300D+02  0.146700D-01
  0.594800D+01  0.917640D-01
  0.174200D+01  0.298683D+00
  0.555000D+00  0.498487D+00
  0.172500D+00  0.337023D+00
   p     1 1.00
  0.174200D+01  0.100000D+01
   p     1 1.00
  0.555000D+00  0.100000D+01
   d     1 1.00
  0.165400D+01  0.100000D+01
   d     1 1.00
  0.469000D+00  0.100000D+01
   f     1 1.00
  0.109300D+01  0.100000D+01
  
  2  0
   s    10 1.00
  0.823600D+04  0.531000D-03
  0.123500D+04  0.410800D-02
  0.280800D+03  0.210870D-01
  0.792700D+02  0.818530D-01
  0.255900D+02  0.234817D+00
  0.899700D+01  0.434401D+00
  0.331900D+01  0.346129D+00
  0.905900D+00  0.393780D-01
  0.364300D+00 -0.898300D-02
  0.128500D+00  0.238500D-02
   s    10 1.00
  0.823600D+04 -0.113000D-03
  0.123500D+04 -0.878000D-03
  0.280800D+03 -0.454000D-02
  0.792700D+02 -0.181330D-01
  0.255900D+02 -0.557600D-01
  0.899700D+01 -0.126895D+00
  0.331900D+01 -0.170352D+00
  0.905900D+00  0.140382D+00
  0.364300D+00  0.598684D+00
  0.128500D+00  0.395389D+00
   s     1 1.00
  0.905900D+00  0.100000D+01
   s     1 1.00
  0.364300D+00  0.100000D+01
   p     5 1.00
  0.187100D+02  0.140310D-01
  0.413300D+01  0.868660D-01
  0.120000D+01  0.290216D+00
  0.382700D+00  0.501008D+00
  0.120900D+00  0.343406D+00
   p     1 1.00
  0.382700D+00  0.100000D+01
   p     1 1.00
  0.120900D+00  0.100000D+01
   d     1 1.00
  0.109700D+01  0.100000D+01
   d     1 1.00
  0.318000D+00  0.100000D+01
   f     1 1.00
  0.761000D+00  0.100000D+01
  
  3  0
   s    10 1.00
  0.823600D+04  0.531000D-03
  0.123500D+04  0.410800D-02
  0.280800D+03  0.210870D-01
  0.792700D+02  0.818530D-01
  0.255900D+02  0.234817D+00
  0.899700D+01  0.434401D+00
  0.331900D+01  0.346129D+00
  0.905900D+00  0.393780D-01
  0.364300D+00 -0.898300D-02
  0.128500D+00  0.238500D-02
   s    10 1.00
  0.823600D+04 -0.113000D-03
  0.123500D+04 -0.878000D-03
  0.280800D+03 -0.454000D-02
  0.792700D+02 -0.181330D-01
  0.255900D+02 -0.557600D-01
  0.899700D+01 -0.126895D+00
  0.331900D+01 -0.170352D+00
  0.905900D+00  0.140382D+00
  0.364300D+00  0.598684D+00
  0.128500D+00  0.395389D+00
   s     1 1.00
  0.905900D+00  0.100000D+01
   s     1 1.00
  0.364300D+00  0.100000D+01
   p     5 1.00
  0.187100D+02  0.140310D-01
  0.413300D+01  0.868660D-01
  0.120000D+01  0.290216D+00
  0.382700D+00  0.501008D+00
  0.120900D+00  0.343406D+00
   p     1 1.00
  0.382700D+00  0.100000D+01
   p     1 1.00
  0.120900D+00  0.100000D+01
   d     1 1.00
  0.109700D+01  0.100000D+01
   d     1 1.00
  0.318000D+00  0.100000D+01
   f     1 1.00
  0.761000D+00  0.100000D+01
  
  4  0
   s    10 1.00
  0.823600D+04  0.531000D-03
  0.123500D+04  0.410800D-02
  0.280800D+03  0.210870D-01
  0.792700D+02  0.818530D-01
  0.255900D+02  0.234817D+00
  0.899700D+01  0.434401D+00
  0.331900D+01  0.346129D+00
  0.905900D+00  0.393780D-01
  0.364300D+00 -0.898300D-02
  0.128500D+00  0.238500D-02
   s    10 1.00
  0.823600D+04 -0.113000D-03
  0.123500D+04 -0.878000D-03
  0.280800D+03 -0.454000D-02
  0.792700D+02 -0.181330D-01
  0.255900D+02 -0.557600D-01
  0.899700D+01 -0.126895D+00
  0.331900D+01 -0.170352D+00
  0.905900D+00  0.140382D+00
  0.364300D+00  0.598684D+00
  0.128500D+00  0.395389D+00
   s     1 1.00
  0.905900D+00  0.100000D+01
   s     1 1.00
  0.364300D+00  0.100000D+01
   p     5 1.00
  0.187100D+02  0.140310D-01
  0.413300D+01  0.868660D-01
  0.120000D+01  0.290216D+00
  0.382700D+00  0.501008D+00
  0.120900D+00  0.343406D+00
   p     1 1.00
  0.382700D+00  0.100000D+01
   p     1 1.00
  0.120900D+00  0.100000D+01
   d     1 1.00
  0.109700D+01  0.100000D+01
   d     1 1.00
  0.318000D+00  0.100000D+01
   f     1 1.00
  0.761000D+00  0.100000D+01
  
  5  0
   s    10 1.00
  0.823600D+04  0.531000D-03
  0.123500D+04  0.410800D-02
  0.280800D+03  0.210870D-01
  0.792700D+02  0.818530D-01
  0.255900D+02  0.234817D+00
  0.899700D+01  0.434401D+00
  0.331900D+01  0.346129D+00
  0.905900D+00  0.393780D-01
  0.364300D+00 -0.898300D-02
  0.128500D+00  0.238500D-02
   s    10 1.00
  0.823600D+04 -0.113000D-03
  0.123500D+04 -0.878000D-03
  0.280800D+03 -0.454000D-02
  0.792700D+02 -0.181330D-01
  0.255900D+02 -0.557600D-01
  0.899700D+01 -0.126895D+00
  0.331900D+01 -0.170352D+00
  0.905900D+00  0.140382D+00
  0.364300D+00  0.598684D+00
  0.128500D+00  0.395389D+00
   s     1 1.00
  0.905900D+00  0.100000D+01
   s     1 1.00
  0.364300D+00  0.100000D+01
   p     5 1.00
  0.187100D+02  0.140310D-01
  0.413300D+01  0.868660D-01
  0.120000D+01  0.290216D+00
  0.382700D+00  0.501008D+00
  0.120900D+00  0.343406D+00
   p     1 1.00
  0.382700D+00  0.100000D+01
   p     1 1.00
  0.120900D+00  0.100000D+01
   d     1 1.00
  0.109700D+01  0.100000D+01
   d     1 1.00
  0.318000D+00  0.100000D+01
   f     1 1.00
  0.761000D+00  0.100000D+01
  
  6  0
   s    10 1.00
  0.823600D+04  0.531000D-03
  0.123500D+04  0.410800D-02
  0.280800D+03  0.210870D-01
  0.792700D+02  0.818530D-01
  0.255900D+02  0.234817D+00
  0.899700D+01  0.434401D+00
  0.331900D+01  0.346129D+00
  0.905900D+00  0.393780D-01
  0.364300D+00 -0.898300D-02
  0.128500D+00  0.238500D-02
   s    10 1.00
  0.823600D+04 -0.113000D-03
  0.123500D+04 -0.878000D-03
  0.280800D+03 -0.454000D-02
  0.792700D+02 -0.181330D-01
  0.255900D+02 -0.557600D-01
  0.899700D+01 -0.126895D+00
  0.331900D+01 -0.170352D+00
  0.905900D+00  0.140382D+00
  0.364300D+00  0.598684D+00
  0.128500D+00  0.395389D+00
   s     1 1.00
  0.905900D+00  0.100000D+01
   s     1 1.00
  0.364300D+00  0.100000D+01
   p     5 1.00
  0.187100D+02  0.140310D-01
  0.413300D+01  0.868660D-01
  0.120000D+01  0.290216D+00
  0.382700D+00  0.501008D+00
  0.120900D+00  0.343406D+00
   p     1 1.00
  0.382700D+00  0.100000D+01
   p     1 1.00
  0.120900D+00  0.100000D+01
   d     1 1.00
  0.109700D+01  0.100000D+01
   d     1 1.00
  0.318000D+00  0.100000D+01
   f     1 1.00
  0.761000D+00  0.100000D+01
  
  7  0
   s    10 1.00
  0.823600D+04  0.531000D-03
  0.123500D+04  0.410800D-02
  0.280800D+03  0.210870D-01
  0.792700D+02  0.818530D-01
  0.255900D+02  0.234817D+00
  0.899700D+01  0.434401D+00
  0.331900D+01  0.346129D+00
  0.905900D+00  0.393780D-01
  0.364300D+00 -0.898300D-02
  0.128500D+00  0.238500D-02
   s    10 1.00
  0.823600D+04 -0.113000D-03
  0.123500D+04 -0.878000D-03
  0.280800D+03 -0.454000D-02
  0.792700D+02 -0.181330D-01
  0.255900D+02 -0.557600D-01
  0.899700D+01 -0.126895D+00
  0.331900D+01 -0.170352D+00
  0.905900D+00  0.140382D+00
  0.364300D+00  0.598684D+00
  0.128500D+00  0.395389D+00
   s     1 1.00
  0.905900D+00  0.100000D+01
   s     1 1.00
  0.364300D+00  0.100000D+01
   p     5 1.00
  0.187100D+02  0.140310D-01
  0.413300D+01  0.868660D-01
  0.120000D+01  0.290216D+00
  0.382700D+00  0.501008D+00
  0.120900D+00  0.343406D+00
   p     1 1.00
  0.382700D+00  0.100000D+01
   p     1 1.00
  0.120900D+00  0.100000D+01
   d     1 1.00
  0.109700D+01  0.100000D+01
   d     1 1.00
  0.318000D+00  0.100000D+01
   f     1 1.00
  0.761000D+00  0.100000D+01
  
  8  0
   s     4 1.00
  0.130100D+02  0.196850D-01
  0.196200D+01  0.137977D+00
  0.444600D+00  0.478148D+00
  0.122000D+00  0.501240D+00
   s     1 1.00
  0.122000D+00  0.100000D+01
   p     1 1.00
  0.727000D+00  0.100000D+01
  
  9  0
   s     4 1.00
  0.130100D+02  0.196850D-01
  0.196200D+01  0.137977D+00
  0.444600D+00  0.478148D+00
  0.122000D+00  0.501240D+00
   s     1 1.00
  0.122000D+00  0.100000D+01
   p     1 1.00
  0.727000D+00  0.100000D+01
  
 10  0
   s     4 1.00
  0.130100D+02  0.196850D-01
  0.196200D+01  0.137977D+00
  0.444600D+00  0.478148D+00
  0.122000D+00  0.501240D+00
   s     1 1.00
  0.122000D+00  0.100000D+01
   p     1 1.00
  0.727000D+00  0.100000D+01
  
 11  0
   s     4 1.00
  0.130100D+02  0.196850D-01
  0.196200D+01  0.137977D+00
  0.444600D+00  0.478148D+00
  0.122000D+00  0.501240D+00
   s     1 1.00
  0.122000D+00  0.100000D+01
   p     1 1.00
  0.727000D+00  0.100000D+01
  
 12  0
   s     4 1.00
  0.130100D+02  0.196850D-01
  0.196200D+01  0.137977D+00
  0.444600D+00  0.478148D+00
  0.122000D+00  0.501240D+00
   s     1 1.00
  0.122000D+00  0.100000D+01
   p     1 1.00
  0.727000D+00  0.100000D+01
  
 13  0
   s     4 1.00
  0.130100D+02  0.196850D-01
  0.196200D+01  0.137977D+00
  0.444600D+00  0.478148D+00
  0.122000D+00  0.501240D+00
   s     1 1.00
  0.122000D+00  0.100000D+01
   p     1 1.00
  0.727000D+00  0.100000D+01
  
 14  0
   s     4 1.00
  0.130100D+02  0.196850D-01
  0.196200D+01  0.137977D+00
  0.444600D+00  0.478148D+00
  0.122000D+00  0.501240D+00
   s     1 1.00
  0.122000D+00  0.100000D+01
   p     1 1.00
  0.727000D+00  0.100000D+01
  
[MO]
 Sym= __1_a__
 Ene=  0.000000000000000E+000
 Spin= Alpha
 Occup=    2.00000000000000     
                     1  6.400499648957070E-005
                     2  0.997299357701833     
                     3  1.529778668303410E-002
                     4  2.851908030060140E-003
                     5 -1.661133820390580E-003
                     6  8.326869589067030E-012
                     7  2.575469282836410E-008
                     8  3.589091320237240E-003
                     9 -2.551670567870470E-012
                    10  1.709097987471820E-008
                    11 -4.474862214190500E-004
                    12 -9.446969636144520E-012
                    13 -1.656546034516520E-007
                    14 -2.005962283798420E-004
                    15  2.094639258325487E-004
                    16 -2.192836316646510E-012
                    17  7.970289582565671E-009
                    18 -7.551539845053980E-004
                    19  1.236806122894140E-013
                    20  1.628921894251828E-004
                    21  1.864551012386130E-012
                    22 -3.493856225110980E-008
                    23  3.434616072168420E-004
                    24  1.625538076082920E-014
                    25 -5.191476532662426E-004
                    26 -3.119809036634604E-013
                    27  1.132182065806101E-008
                    28  5.930933470283400E-004
                    29  2.389758841781610E-013
                    30 -2.660327883637461E-012
                    31 -1.609981403779144E-009
                    32 -3.887071631627130E-004
                    33  3.204061741203230E-003
                    34  1.943628332257580E-004
                    35 -3.452002850021040E-004
                    36 -3.944755724519360E-012
                    37  5.265904553688300E-008
                    38 -8.235687660218410E-003
                    39  4.061693217156490E-012
                    40 -1.567360174070250E-007
                    41  2.876070656043350E-004
                    42 -9.441203756234260E-012
                    43 -7.184294502037840E-009
                    44  2.968410017456610E-003
                    45  3.704702327354960E-004
                    46 -2.806557000529100E-014
                    47  2.284175313844150E-008
                    48  1.606101608357880E-004
                    49  2.783392718478120E-012
                    50 -1.125810091913592E-005
                    51  3.494118004640400E-013
                    52 -3.320924774008480E-007
                    53 -4.940319663788800E-004
                    54 -4.371672955515420E-012
                    55 -1.841858631799820E-004
                    56  2.191169525813028E-012
                    57 -3.833159210402712E-009
                    58  1.724012633270514E-004
                    59 -6.979928700815830E-013
                    60  1.285417808460210E-012
                    61 -3.555274337823562E-009
                    62 -1.752958285664790E-004
                    63 -1.789520213902220E-003
                    64  3.662520023748920E-005
                    65  5.759402188169090E-004
                    66 -3.440967887312900E-012
                    67 -9.603211413392440E-004
                    68  1.286120664170200E-003
                    69  1.193401965014430E-012
                    70  2.044472914878640E-005
                    71  5.368639322572040E-004
                    72  4.225010150722460E-012
                    73 -1.498635335723010E-005
                    74  1.869639037643790E-004
                    75  1.091541595192269E-004
                    76 -2.726104339990540E-012
                    77 -3.034071016852030E-005
                    78  3.590346347576900E-005
                    79 -1.983902321658860E-012
                    80 -1.534378326214817E-004
                    81  3.230942675898980E-012
                    82  2.960902571964550E-004
                    83 -9.451412872880801E-005
                    84  9.546109161960341E-014
                    85 -1.135340648411025E-004
                    86  4.243075815331350E-014
                    87 -4.714395992756307E-005
                    88  3.050096483076380E-005
                    89  1.032634844739970E-012
                    90 -6.906485398861227E-013
                    91  6.182350915729386E-006
                    92 -1.752006240171700E-004
                    93 -1.789147273657770E-003
                    94  3.702000955245810E-005
                    95  5.745314630271320E-004
                    96  9.379506896885420E-012
                    97  9.603792299127960E-004
                    98  1.286390059096710E-003
                    99 -1.079356734189080E-011
                   100 -2.079128174079900E-005
                   101  5.352878510173940E-004
                   102  7.355872987374070E-012
                   103  1.363049584354430E-005
                   104  1.871951027667890E-004
                   105  1.090642152716718E-004
                   106 -3.753237244343980E-013
                   107  3.038221730751390E-005
                   108  3.590962552843060E-005
                   109  2.125213409376870E-012
                   110 -1.544472888713590E-004
                   111 -1.810965596706450E-012
                   112 -2.963377922893600E-004
                   113 -9.475311791815440E-005
                   114 -5.427503780840200E-012
                   115 -1.133807997855256E-004
                   116 -3.627066235663771E-012
                   117  4.713032894752367E-005
                   118  3.049287072910540E-005
                   119  1.204515942234690E-012
                   120 -1.133286784398134E-012
                   121 -6.180812393111529E-006
                   122 -1.328648523606960E-004
                   123  1.626266830715250E-004
                   124  1.146475579916310E-004
                   125  9.055209357398390E-005
                   126 -1.343914377077010E-011
                   127  6.055371334495330E-005
                   128 -9.563644927980590E-004
                   129  1.167732144270830E-011
                   130 -4.202416826046000E-005
                   131  3.151746234320380E-004
                   132 -4.450020315291610E-012
                   133 -9.053915954731440E-005
                   134  4.760346380169320E-004
                   135 -1.940708015390168E-005
                   136  3.362739570503110E-013
                   137 -4.880723548322381E-007
                   138  3.676337997239120E-006
                   139  2.970829609760670E-013
                   140 -1.337084453057823E-004
                   141  1.463162464262110E-012
                   142  1.983979158218680E-004
                   143  1.906132552211298E-005
                   144 -1.803841031550420E-012
                   145 -4.011680338425630E-005
                   146  1.398018088514549E-012
                   147  4.117996619369709E-006
                   148 -7.796262624680761E-006
                   149  3.083329991080630E-012
                   150  8.390883191656235E-013
                   151 -2.007887290806733E-006
                   152 -1.341508772001730E-004
                   153  1.581521069344400E-004
                   154  1.136770397750570E-004
                   155  9.752446976778040E-005
                   156  9.574552482796311E-012
                   157 -6.052680633735980E-005
                   158 -9.562503548166920E-004
                   159 -7.769402996709770E-012
                   160  4.164158985279220E-005
                   161  3.141433658148800E-004
                   162 -1.067707522078350E-011
                   163  9.194791776499941E-005
                   164  4.760994624277160E-004
                   165 -1.927535692389837E-005
                   166 -2.708259775413760E-012
                   167  4.834893959403320E-007
                   168  3.562937028868580E-006
                   169 -1.462409336151510E-012
                   170 -1.332814835813533E-004
                   171 -1.217436228512100E-013
                   172 -1.988574026150510E-004
                   173  1.905659891170580E-005
                   174  1.511383982486630E-012
                   175 -3.991343897108415E-005
                   176  2.660559989844041E-012
                   177 -4.082468111614979E-006
                   178 -7.900711564211681E-006
                   179 -4.410905376006830E-012
                   180  2.574745263696131E-013
                   181  2.012103322359365E-006
                   182 -1.115250412244740E-004
                   183 -2.882905686519840E-004
                   184  2.384731878928740E-005
                   185  1.374454721156350E-004
                   186 -4.634579365675620E-012
                   187  1.264305283456870E-007
                   188 -3.308773303103620E-005
                   189  2.849417276158010E-012
                   190 -6.796111453680590E-007
                   191 -2.996828048333830E-005
                   192  9.735748973823280E-012
                   193  1.970528557566570E-007
                   194  2.385678832167900E-004
                   195  2.410876403395914E-005
                   196  4.633622946733080E-012
                   197  4.945271707806020E-008
                   198  1.083760624290188E-005
                   199 -2.113418255519360E-012
                   200  5.992249807269587E-005
                   201 -2.699138742973880E-012
                   202  3.028392369738750E-007
                   203  3.821439478038500E-005
                   204  3.252009713380360E-012
                   205 -1.557739343882048E-005
                   206  3.761958799678085E-012
                   207 -1.466388306019709E-008
                   208  9.919401094150880E-006
                   209 -1.024026090152850E-012
                   210 -1.103981907248782E-012
                   211  4.294404927614071E-008
                   212  6.362029800559750E-003
                   213 -3.724491964984420E-003
                   214  8.024634910125190E-013
                   215  2.188120567637250E-004
                   216  2.397620246092800E-004
                   217  6.362230935812060E-003
                   218 -3.724589683152720E-003
                   219  1.836953735693730E-012
                   220 -2.188740266747740E-004
                   221  2.398210847176570E-004
                   222 -8.740965440294771E-004
                   223  3.232549659644510E-004
                   224  2.284130516263560E-013
                   225 -3.266462256931070E-005
                   226 -6.666710233914560E-005
                   227 -8.742901346877910E-004
                   228  3.240771389856730E-004
                   229  3.137260424399680E-012
                   230  3.262418930950550E-005
                   231 -6.673377541997430E-005
                   232 -2.697821403781240E-004
                   233 -2.757015574867980E-004
                   234 -1.092446733361730E-012
                   235 -7.293850191172460E-006
                   236  1.014586834188510E-005
                   237 -2.699639209297610E-004
                   238 -2.759990916644920E-004
                   239  3.254946887695280E-012
                   240  7.428823812503290E-006
                   241  1.024932487872730E-005
                   242  9.544647393193960E-005
                   243 -1.867742785773770E-004
                   244 -2.792280717085980E-012
                   245 -3.384044728535080E-008
                   246  7.113431941951830E-006
 Sym= __2_a__
 Ene=  0.000000000000000E+000
 Spin= Alpha
 Occup=    2.00000000000000     
                     1 -3.292153233773700E-005
                     2 -2.065804728629600E-004
                     3  1.518694964899320E-003
                     4  1.023728500596290E-004
                     5  1.623678066979850E-003
                     6  9.035349116702010E-012
                     7  4.080065652782720E-009
                     8  2.940658159168480E-003
                     9 -1.124712742952060E-012
                    10 -2.973580553314050E-009
                    11 -5.823350438106830E-005
                    12 -3.333026582787890E-012
                    13  6.343650376951460E-009
                    14 -3.515719881674740E-004
                    15  2.458693173074050E-005
                    16  1.084968836970380E-012
                    17 -2.424346935020140E-011
                    18  6.379417730722800E-005
                    19  5.941455784416280E-014
                    20 -4.209520624946355E-004
                    21  2.720018572523580E-012
                    22 -1.002378564340190E-009
                    23 -4.108008770107860E-004
                    24  2.040612607085340E-012
                    25  1.685013594669513E-004
                    26  1.683984748557459E-012
                    27 -5.450982956261193E-009
                    28 -1.445917527223392E-005
                    29 -6.070092099203860E-014
                    30  1.992370172102260E-012
                    31  2.825466073757768E-010
                    32   1.00105308752624     
                    33  9.161925899121549E-003
                    34  2.674389836124040E-003
                    35 -7.754520641413960E-003
                    36 -6.512923178539410E-012
                    37 -5.131478661103410E-009
                    38 -3.905579992980470E-003
                    39 -1.008001517215530E-011
                    40  4.650123228791160E-010
                    41  1.060422041954730E-003
                    42  1.043554057501200E-011
                    43 -7.733575980662980E-008
                    44  4.624586380785510E-003
                    45  4.544293095027179E-004
                    46 -6.582994480777520E-013
                    47 -3.431923768762600E-009
                    48 -4.336878747332420E-004
                    49  9.517664699630960E-013
                    50  5.444483746663787E-004
                    51 -3.969938259253280E-013
                    52  6.460525667066240E-009
                    53  9.515044777888779E-004
                    54 -9.474213631867530E-012
                    55  3.694257433148294E-004
                    56 -1.597274633452387E-012
                    57  1.943405759510349E-009
                    58 -2.151123174918860E-004
                    59 -5.557581306366010E-013
                    60 -1.553966317178988E-012
                    61  1.804061576809192E-009
                    62  7.255760813191550E-003
                    63 -2.048492202970440E-003
                    64 -2.804838071149110E-004
                    65  3.087341202428950E-003
                    66  7.037547402413550E-013
                    67  1.427435730279790E-004
                    68 -7.991403720732310E-005
                    69  6.966743874462800E-012
                    70  5.987620057694080E-004
                    71  3.900726290867770E-005
                    72  4.925926613109090E-012
                    73 -2.178916695574030E-003
                    74  6.107091610796141E-005
                    75 -1.789447726527143E-005
                    76  2.621886099433250E-013
                    77  1.356939755974290E-005
                    78  2.606016856152120E-005
                    79  2.102156015993440E-013
                    80  7.779630218299493E-004
                    81  1.381910897424500E-011
                    82 -4.339503484402650E-004
                    83 -8.833448804676940E-006
                    84  1.126431577343850E-012
                    85  7.218313771638949E-005
                    86  1.996435716558406E-012
                    87  4.721324716662940E-005
                    88 -1.253980351828664E-004
                    89  6.024865017536070E-013
                    90 -1.620039222555061E-012
                    91  5.040262183162185E-005
                    92  7.255735558650890E-003
                    93 -2.048575914480420E-003
                    94 -2.805241446163100E-004
                    95  3.087534867461580E-003
                    96 -1.674574461485730E-011
                    97 -1.427445028255640E-004
                    98 -7.993489023284879E-005
                    99  2.045674354581070E-011
                   100 -5.987610832309700E-004
                   101  3.912717802669150E-005
                   102 -6.097045051263010E-012
                   103  2.179021301737470E-003
                   104  6.090147540999980E-005
                   105 -1.788020241183154E-005
                   106  5.680766551926290E-013
                   107 -1.357516064168000E-005
                   108  2.605907943882100E-005
                   109  1.465697223030320E-012
                   110  7.780186438461252E-004
                   111 -9.798381404569960E-012
                   112  4.339988381672980E-004
                   113 -8.816984520985580E-006
                   114 -7.547269900343490E-012
                   115  7.217028423446768E-005
                   116  3.272052463758940E-012
                   117 -4.721184296847491E-005
                   118 -1.253952212367188E-004
                   119  4.985450341110790E-012
                   120  4.467365890232276E-013
                   121 -5.040178025120124E-005
                   122 -2.456240664778930E-004
                   123 -8.008295690295770E-004
                   124  2.268386750488410E-004
                   125 -1.044277459949840E-004
                   126  1.153285970526330E-012
                   127 -2.418183829726190E-005
                   128 -2.118358241739420E-004
                   129 -9.226284847000780E-012
                   130 -1.214480503796220E-006
                   131  5.448465301687150E-004
                   132 -1.850503057951610E-011
                   133  3.255414801158620E-004
                   134  7.800819082710020E-004
                   135 -1.509328560910396E-005
                   136 -3.038624190815780E-012
                   137  5.090105846659590E-005
                   138  1.375734187125558E-005
                   139 -7.446381824179300E-013
                   140 -3.023817855823862E-004
                   141  1.047401316891380E-011
                   142 -2.242164966091130E-004
                   143 -1.379082321604098E-005
                   144 -4.467541849951100E-012
                   145 -1.041615187935967E-006
                   146 -3.888985688307830E-012
                   147 -4.024133510621315E-005
                   148 -3.909572773190960E-005
                   149 -3.968151948503690E-012
                   150 -4.785015786026428E-013
                   151 -5.788132040185985E-006
                   152 -2.453630845080350E-004
                   153 -7.999625801605050E-004
                   154  2.269025341375880E-004
                   155 -1.053596371406820E-004
                   156 -1.795979607814800E-011
                   157  2.417318175807690E-005
                   158 -2.118384601112710E-004
                   159  1.603270759120020E-011
                   160  1.257354172872050E-006