[Molden Format]
[Atoms] AU
  N     1    7     0.0000000000   -4.2907334100    0.0000000000        
  C     2    6     0.0000000000   -1.7772236300    0.0000000000        
  C     3    6    -2.3389203600   -0.4111016300    0.0000000000        
  C     4    6     2.3389203600   -0.4111016300    0.0000000000        
  C     5    6    -2.2998668500    2.1639215300    0.0000000000        
  C     6    6     2.2998668500    2.1639215300    0.0000000000        
  C     7    6     0.0000000000    3.4755251800    0.0000000000        
  H     8    1    -2.7341110200   -5.9774504400    0.0000000000        
  H     9    1     1.6528040300   -5.3103747800    0.0000000000        
  H    10    1    -4.0745407300   -1.4447408500    0.0000000000        
  H    11    1     4.0745407300   -1.4447408500    0.0000000000        
  H    12    1    -4.0420632100    3.1963889500    0.0000000000        
  H    13    1     4.0420632100    3.1963889500    0.0000000000        
  H    14    1     0.0000000000    5.5020335600    0.0000000000        
[5D]
[7F]
[GTO]
  1  0
   s    12 1.00
  0.114200D+05  0.172695D-04
  0.171200D+04  0.134411D-03
  0.389300D+03  0.694561D-03
  0.110000D+03  0.278531D-02
  0.355700D+02  0.863457D-02
  0.125400D+02  0.199805D-01
  0.464400D+01  0.262908D-01
  0.129300D+01 -0.243845D-01
  0.511800D+00 -0.924934D-01
  0.178700D+00 -0.339683D+00
  0.246240D-01  0.345111D+00
  0.112530D-01  0.752750D+00
   s    10 1.00
  0.114200D+05  0.523000D-03
  0.171200D+04  0.404500D-02
  0.389300D+03  0.207750D-01
  0.110000D+03  0.807269D-01
  0.355700D+02  0.233074D+00
  0.125400D+02  0.433501D+00
  0.464400D+01  0.347472D+00
  0.129300D+01  0.412620D-01
  0.511800D+00 -0.850799D-02
  0.178700D+00  0.238400D-02
   s    10 1.00
  0.114200D+05 -0.115000D-03
  0.171200D+04 -0.895000D-03
  0.389300D+03 -0.462400D-02
  0.110000D+03 -0.185280D-01
  0.355700D+02 -0.573390D-01
  0.125400D+02 -0.132076D+00
  0.464400D+01 -0.172510D+00
  0.129300D+01  0.151814D+00
  0.511800D+00  0.599944D+00
  0.178700D+00  0.387462D+00
   s     1 1.00
  0.129300D+01  0.100000D+01
   s     1 1.00
  0.178700D+00  0.100000D+01
   p     5 1.00
  0.266300D+02  0.146700D-01
  0.594800D+01  0.917640D-01
  0.174200D+01  0.298683D+00
  0.555000D+00  0.498487D+00
  0.172500D+00  0.337023D+00
   p     1 1.00
  0.174200D+01  0.100000D+01
   p     1 1.00
  0.555000D+00  0.100000D+01
   d     1 1.00
  0.165400D+01  0.100000D+01
   d     1 1.00
  0.469000D+00  0.100000D+01
   f     1 1.00
  0.109300D+01  0.100000D+01
  
  2  0
   s    10 1.00
  0.823600D+04  0.531000D-03
  0.123500D+04  0.410800D-02
  0.280800D+03  0.210870D-01
  0.792700D+02  0.818530D-01
  0.255900D+02  0.234817D+00
  0.899700D+01  0.434401D+00
  0.331900D+01  0.346129D+00
  0.905900D+00  0.393780D-01
  0.364300D+00 -0.898300D-02
  0.128500D+00  0.238500D-02
   s    10 1.00
  0.823600D+04 -0.113000D-03
  0.123500D+04 -0.878000D-03
  0.280800D+03 -0.454000D-02
  0.792700D+02 -0.181330D-01
  0.255900D+02 -0.557600D-01
  0.899700D+01 -0.126895D+00
  0.331900D+01 -0.170352D+00
  0.905900D+00  0.140382D+00
  0.364300D+00  0.598684D+00
  0.128500D+00  0.395389D+00
   s     1 1.00
  0.905900D+00  0.100000D+01
   s     1 1.00
  0.364300D+00  0.100000D+01
   p     5 1.00
  0.187100D+02  0.140310D-01
  0.413300D+01  0.868660D-01
  0.120000D+01  0.290216D+00
  0.382700D+00  0.501008D+00
  0.120900D+00  0.343406D+00
   p     1 1.00
  0.382700D+00  0.100000D+01
   p     1 1.00
  0.120900D+00  0.100000D+01
   d     1 1.00
  0.109700D+01  0.100000D+01
   d     1 1.00
  0.318000D+00  0.100000D+01
   f     1 1.00
  0.761000D+00  0.100000D+01
  
  3  0
   s    10 1.00
  0.823600D+04  0.531000D-03
  0.123500D+04  0.410800D-02
  0.280800D+03  0.210870D-01
  0.792700D+02  0.818530D-01
  0.255900D+02  0.234817D+00
  0.899700D+01  0.434401D+00
  0.331900D+01  0.346129D+00
  0.905900D+00  0.393780D-01
  0.364300D+00 -0.898300D-02
  0.128500D+00  0.238500D-02
   s    10 1.00
  0.823600D+04 -0.113000D-03
  0.123500D+04 -0.878000D-03
  0.280800D+03 -0.454000D-02
  0.792700D+02 -0.181330D-01
  0.255900D+02 -0.557600D-01
  0.899700D+01 -0.126895D+00
  0.331900D+01 -0.170352D+00
  0.905900D+00  0.140382D+00
  0.364300D+00  0.598684D+00
  0.128500D+00  0.395389D+00
   s     1 1.00
  0.905900D+00  0.100000D+01
   s     1 1.00
  0.364300D+00  0.100000D+01
   p     5 1.00
  0.187100D+02  0.140310D-01
  0.413300D+01  0.868660D-01
  0.120000D+01  0.290216D+00
  0.382700D+00  0.501008D+00
  0.120900D+00  0.343406D+00
   p     1 1.00
  0.382700D+00  0.100000D+01
   p     1 1.00
  0.120900D+00  0.100000D+01
   d     1 1.00
  0.109700D+01  0.100000D+01
   d     1 1.00
  0.318000D+00  0.100000D+01
   f     1 1.00
  0.761000D+00  0.100000D+01
  
  4  0
   s    10 1.00
  0.823600D+04  0.531000D-03
  0.123500D+04  0.410800D-02
  0.280800D+03  0.210870D-01
  0.792700D+02  0.818530D-01
  0.255900D+02  0.234817D+00
  0.899700D+01  0.434401D+00
  0.331900D+01  0.346129D+00
  0.905900D+00  0.393780D-01
  0.364300D+00 -0.898300D-02
  0.128500D+00  0.238500D-02
   s    10 1.00
  0.823600D+04 -0.113000D-03
  0.123500D+04 -0.878000D-03
  0.280800D+03 -0.454000D-02
  0.792700D+02 -0.181330D-01
  0.255900D+02 -0.557600D-01
  0.899700D+01 -0.126895D+00
  0.331900D+01 -0.170352D+00
  0.905900D+00  0.140382D+00
  0.364300D+00  0.598684D+00
  0.128500D+00  0.395389D+00
   s     1 1.00
  0.905900D+00  0.100000D+01
   s     1 1.00
  0.364300D+00  0.100000D+01
   p     5 1.00
  0.187100D+02  0.140310D-01
  0.413300D+01  0.868660D-01
  0.120000D+01  0.290216D+00
  0.382700D+00  0.501008D+00
  0.120900D+00  0.343406D+00
   p     1 1.00
  0.382700D+00  0.100000D+01
   p     1 1.00
  0.120900D+00  0.100000D+01
   d     1 1.00
  0.109700D+01  0.100000D+01
   d     1 1.00
  0.318000D+00  0.100000D+01
   f     1 1.00
  0.761000D+00  0.100000D+01
  
  5  0
   s    10 1.00
  0.823600D+04  0.531000D-03
  0.123500D+04  0.410800D-02
  0.280800D+03  0.210870D-01
  0.792700D+02  0.818530D-01
  0.255900D+02  0.234817D+00
  0.899700D+01  0.434401D+00
  0.331900D+01  0.346129D+00
  0.905900D+00  0.393780D-01
  0.364300D+00 -0.898300D-02
  0.128500D+00  0.238500D-02
   s    10 1.00
  0.823600D+04 -0.113000D-03
  0.123500D+04 -0.878000D-03
  0.280800D+03 -0.454000D-02
  0.792700D+02 -0.181330D-01
  0.255900D+02 -0.557600D-01
  0.899700D+01 -0.126895D+00
  0.331900D+01 -0.170352D+00
  0.905900D+00  0.140382D+00
  0.364300D+00  0.598684D+00
  0.128500D+00  0.395389D+00
   s     1 1.00
  0.905900D+00  0.100000D+01
   s     1 1.00
  0.364300D+00  0.100000D+01
   p     5 1.00
  0.187100D+02  0.140310D-01
  0.413300D+01  0.868660D-01
  0.120000D+01  0.290216D+00
  0.382700D+00  0.501008D+00
  0.120900D+00  0.343406D+00
   p     1 1.00
  0.382700D+00  0.100000D+01
   p     1 1.00
  0.120900D+00  0.100000D+01
   d     1 1.00
  0.109700D+01  0.100000D+01
   d     1 1.00
  0.318000D+00  0.100000D+01
   f     1 1.00
  0.761000D+00  0.100000D+01
  
  6  0
   s    10 1.00
  0.823600D+04  0.531000D-03
  0.123500D+04  0.410800D-02
  0.280800D+03  0.210870D-01
  0.792700D+02  0.818530D-01
  0.255900D+02  0.234817D+00
  0.899700D+01  0.434401D+00
  0.331900D+01  0.346129D+00
  0.905900D+00  0.393780D-01
  0.364300D+00 -0.898300D-02
  0.128500D+00  0.238500D-02
   s    10 1.00
  0.823600D+04 -0.113000D-03
  0.123500D+04 -0.878000D-03
  0.280800D+03 -0.454000D-02
  0.792700D+02 -0.181330D-01
  0.255900D+02 -0.557600D-01
  0.899700D+01 -0.126895D+00
  0.331900D+01 -0.170352D+00
  0.905900D+00  0.140382D+00
  0.364300D+00  0.598684D+00
  0.128500D+00  0.395389D+00
   s     1 1.00
  0.905900D+00  0.100000D+01
   s     1 1.00
  0.364300D+00  0.100000D+01
   p     5 1.00
  0.187100D+02  0.140310D-01
  0.413300D+01  0.868660D-01
  0.120000D+01  0.290216D+00
  0.382700D+00  0.501008D+00
  0.120900D+00  0.343406D+00
   p     1 1.00
  0.382700D+00  0.100000D+01
   p     1 1.00
  0.120900D+00  0.100000D+01
   d     1 1.00
  0.109700D+01  0.100000D+01
   d     1 1.00
  0.318000D+00  0.100000D+01
   f     1 1.00
  0.761000D+00  0.100000D+01
  
  7  0
   s    10 1.00
  0.823600D+04  0.531000D-03
  0.123500D+04  0.410800D-02
  0.280800D+03  0.210870D-01
  0.792700D+02  0.818530D-01
  0.255900D+02  0.234817D+00
  0.899700D+01  0.434401D+00
  0.331900D+01  0.346129D+00
  0.905900D+00  0.393780D-01
  0.364300D+00 -0.898300D-02
  0.128500D+00  0.238500D-02
   s    10 1.00
  0.823600D+04 -0.113000D-03
  0.123500D+04 -0.878000D-03
  0.280800D+03 -0.454000D-02
  0.792700D+02 -0.181330D-01
  0.255900D+02 -0.557600D-01
  0.899700D+01 -0.126895D+00
  0.331900D+01 -0.170352D+00
  0.905900D+00  0.140382D+00
  0.364300D+00  0.598684D+00
  0.128500D+00  0.395389D+00
   s     1 1.00
  0.905900D+00  0.100000D+01
   s     1 1.00
  0.364300D+00  0.100000D+01
   p     5 1.00
  0.187100D+02  0.140310D-01
  0.413300D+01  0.868660D-01
  0.120000D+01  0.290216D+00
  0.382700D+00  0.501008D+00
  0.120900D+00  0.343406D+00
   p     1 1.00
  0.382700D+00  0.100000D+01
   p     1 1.00
  0.120900D+00  0.100000D+01
   d     1 1.00
  0.109700D+01  0.100000D+01
   d     1 1.00
  0.318000D+00  0.100000D+01
   f     1 1.00
  0.761000D+00  0.100000D+01
  
  8  0
   s     4 1.00
  0.130100D+02  0.196850D-01
  0.196200D+01  0.137977D+00
  0.444600D+00  0.478148D+00
  0.122000D+00  0.501240D+00
   s     1 1.00
  0.122000D+00  0.100000D+01
   p     1 1.00
  0.727000D+00  0.100000D+01
  
  9  0
   s     4 1.00
  0.130100D+02  0.196850D-01
  0.196200D+01  0.137977D+00
  0.444600D+00  0.478148D+00
  0.122000D+00  0.501240D+00
   s     1 1.00
  0.122000D+00  0.100000D+01
   p     1 1.00
  0.727000D+00  0.100000D+01
  
 10  0
   s     4 1.00
  0.130100D+02  0.196850D-01
  0.196200D+01  0.137977D+00
  0.444600D+00  0.478148D+00
  0.122000D+00  0.501240D+00
   s     1 1.00
  0.122000D+00  0.100000D+01
   p     1 1.00
  0.727000D+00  0.100000D+01
  
 11  0
   s     4 1.00
  0.130100D+02  0.196850D-01
  0.196200D+01  0.137977D+00
  0.444600D+00  0.478148D+00
  0.122000D+00  0.501240D+00
   s     1 1.00
  0.122000D+00  0.100000D+01
   p     1 1.00
  0.727000D+00  0.100000D+01
  
 12  0
   s     4 1.00
  0.130100D+02  0.196850D-01
  0.196200D+01  0.137977D+00
  0.444600D+00  0.478148D+00
  0.122000D+00  0.501240D+00
   s     1 1.00
  0.122000D+00  0.100000D+01
   p     1 1.00
  0.727000D+00  0.100000D+01
  
 13  0
   s     4 1.00
  0.130100D+02  0.196850D-01
  0.196200D+01  0.137977D+00
  0.444600D+00  0.478148D+00
  0.122000D+00  0.501240D+00
   s     1 1.00
  0.122000D+00  0.100000D+01
   p     1 1.00
  0.727000D+00  0.100000D+01
  
 14  0
   s     4 1.00
  0.130100D+02  0.196850D-01
  0.196200D+01  0.137977D+00
  0.444600D+00  0.478148D+00
  0.122000D+00  0.501240D+00
   s     1 1.00
  0.122000D+00  0.100000D+01
   p     1 1.00
  0.727000D+00  0.100000D+01
  
[MO]
 Sym= __1_A__
 Ene=   1.00000000000000     
 Spin= Alpha
 Occup=    1.00000000000000     
                     1  7.515123589403900E-005
                     2  0.998364214805440     
                     3  2.229051259949043E-003
                     4  1.779169431404777E-003
                     5  4.807550443246057E-003
                     6  2.915933638320112E-003
                     7  5.784912122757989E-003
                     8 -6.111710055132081E-012
                     9 -5.819657452959112E-004
                    10 -4.281863133036217E-004
                    11 -7.878614671978161E-012
                    12 -2.229266895969642E-003
                    13 -1.275663578504452E-003
                    14  3.979414821645762E-012
                    15 -1.188173403089807E-004
                    16  1.665427888122231E-012
                    17  5.207827098865032E-013
                    18 -2.062549957250422E-004
                    19 -1.018651938481470E-004
                    20  1.890425228176173E-004
                    21 -2.047062980072101E-012
                    22 -6.676116315382068E-012
                    23 -2.271470866707816E-004
                    24  5.877814437821050E-004
                    25  2.051002907050188E-012
                    26 -3.258235339397610E-006
                    27 -5.370767491811238E-005
                    28  8.035954282614196E-013
                    29  2.275551890681620E-013
                    30  1.718904127725006E-005
                    31 -1.352682545105725E-004
                    32 -3.211382011821690E-004
                    33  1.408505148495098E-003
                    34  2.598216255848254E-004
                    35 -2.684153139617526E-004
                    36 -1.741405085858980E-004
                    37 -4.887355676486337E-003
                    38  6.848203523458038E-012
                    39  4.613476009803701E-004
                    40  2.677080424076374E-004
                    41 -8.320490799438773E-013
                    42 -1.963663860898481E-003
                    43  5.154053671965186E-003
                    44  2.196711734070273E-011
                    45 -2.342032355722240E-005
                    46 -2.845213857557903E-013
                    47 -1.181412407171939E-013
                    48 -2.447911377776540E-004
                    49 -1.420014882113930E-005
                    50 -2.625252996120923E-004
                    51 -3.472658453603699E-012
                    52  2.702764272161157E-012
                    53  8.383525376442547E-005
                    54  8.092363783966683E-004
                    55  5.163183114689514E-012
                    56 -1.292109256263962E-005
                    57 -4.949517773430914E-005
                    58 -2.474956194431346E-012
                    59 -4.646957456065718E-012
                    60 -9.937878798983662E-006
                    61 -1.255542852260502E-004
                    62 -4.538581227637628E-004
                    63 -2.159015015882570E-003
                    64 -8.166509778110699E-005
                    65  1.959463234121304E-003
                    66 -7.026596375006607E-004
                    67  5.301684908048737E-004
                    68  8.699064234084185E-012
                    69  4.442014257754745E-004
                    70  7.708620131752573E-004
                    71 -8.526604001961812E-012
                    72 -1.604934409150475E-003
                    73  6.623571336646546E-004
                    74 -1.677435924971850E-011
                    75 -3.966150975916755E-005
                    76  5.328375941102601E-012
                    77 -9.017583479107892E-013
                    78 -8.543440138564062E-005
                    79 -3.180491755776926E-005
                    80 -1.234558319016710E-004
                    81 -8.526098219150987E-012
                    82  4.212991558140285E-012
                    83  1.138472567951708E-004
                    84  1.234283308068888E-004
                    85 -5.322781959626096E-012
                    86  1.233984183913296E-005
                    87 -4.662153444112370E-005
                    88 -5.293359572583926E-012
                    89  1.203958661610694E-012
                    90 -1.737075102415761E-005
                    91 -1.446700268565838E-004
                    92 -1.329692097762842E-004
                    93 -1.052577651037566E-003
                    94  2.060745940268345E-004
                    95 -2.996086032584225E-004
                    96  5.852563898443324E-004
                    97  6.869895053218985E-004
                    98  6.938548290476532E-012
                    99  4.219249730613009E-004
                   100  3.398458900081338E-004
                   101  4.636456858005352E-012
                   102  4.737122320316654E-004
                   103 -1.309630103817160E-003
                   104 -2.634302794737277E-011
                   105 -2.129429174349098E-006
                   106 -1.292785163350582E-012
                   107 -1.142566999843909E-012
                   108 -6.988865230474820E-005
                   109 -1.703680686985795E-005
                   110  1.212753911700719E-004
                   111  3.659054444577952E-012
                   112  6.045156564708439E-012
                   113 -1.225532010093655E-004
                   114 -7.209311485766232E-005
                   115 -1.252702168962927E-012
                   116 -2.355327822386993E-005
                   117 -2.989505186085416E-005
                   118 -4.209069020764116E-012
                   119 -1.613114984616732E-012
                   120  1.215905104078689E-005
                   121 -2.829948260463640E-005
                   122 -2.502988071650556E-004
                   123 -4.739978734280064E-004
                   124  1.624825124898735E-004
                   125  3.600477384491408E-004
                   126 -4.105736289238344E-006
                   127 -5.660328272676562E-004
                   128 -8.674132377532353E-012
                   129  1.550342658363375E-004
                   130  5.662987126798319E-004
                   131  2.542231777109731E-013
                   132  3.303302906739224E-004
                   133  1.854049691805995E-003
                   134  1.148398943715532E-011
                   135  1.245706572066761E-005
                   136  1.082706850400078E-012
                   137 -7.005732301274917E-013
                   138  3.941092243228262E-005
                   139  6.156462061328063E-007
                   140  1.875443346581376E-004
                   141  2.425681770942221E-012
                   142  2.495771973271947E-012
                   143  3.331372333306260E-004
                   144  2.505482276563230E-004
                   145 -5.245706977649318E-013
                   146 -8.019174705464014E-006
                   147 -5.750028576835357E-005
                   148  1.926082334559722E-014
                   149 -2.142773005930256E-012
                   150 -1.908278361693314E-005
                   151 -4.632513495280499E-005
                   152 -1.724198236316162E-004
                   153 -2.326230483437781E-004
                   154  3.974870589261456E-005
                   155  3.665649597585493E-004
                   156 -3.021247721710921E-005
                   157 -5.040593592273399E-004
                   158 -2.534177169907246E-012
                   159  1.483556729807695E-005
                   160  6.792847760951939E-005
                   161 -4.490136345366629E-012
                   162  6.677150312843751E-004
                   163 -1.692133311837441E-004
                   164  1.654778620680827E-011
                   165 -2.424270922902019E-006
                   166  2.889910955982366E-012
                   167 -4.175978520556535E-012
                   168 -7.105996279784700E-006
                   169  3.920992622757289E-006
                   170  6.223104717544798E-005
                   171 -4.853893035795679E-012
                   172  7.595107393999859E-012
                   173  2.326135684083080E-005
                   174 -4.316180252063508E-005
                   175 -3.612474629486572E-012
                   176  4.082940582816220E-006
                   177 -9.454397067890020E-006
                   178  1.191901688923399E-012
                   179 -2.339465447148755E-013
                   180 -2.054324619849031E-005
                   181 -9.282229000719629E-006
                   182 -1.617890480237953E-004
                   183 -4.596718398293101E-004
                   184  4.523030976203829E-005
                   185  2.297459598209652E-004
                   186 -3.331253658438220E-005
                   187 -5.312638318832747E-005
                   188 -3.597432101734030E-012
                   189  1.800997568524484E-004
                   190  5.981631276267269E-005
                   191  5.939785187581338E-012
                   192  1.146334421686880E-003
                   193 -1.496907321236319E-004
                   194  1.135470912801011E-012
                   195 -8.732689239240802E-007
                   196 -1.962855892898053E-012
                   197 -3.083213107899855E-012
                   198 -1.387235106255205E-005
                   199  6.063957508988564E-006
                   200  1.516417040524093E-005
                   201  2.008945334196057E-012
                   202  4.161749552261587E-012
                   203 -8.496667338069574E-005
                   204 -1.565998988910861E-004
                   205 -3.008431489455212E-012
                   206 -4.699104342943432E-006
                   207 -5.338904682828424E-006
                   208 -5.320891892038862E-012
                   209 -3.602122957697170E-013
                   210  9.126977733998057E-006
                   211 -5.541254419441509E-006
                   212  1.823988766008323E-005
                   213  5.453700581123315E-005
                   214  9.298604838620961E-005
                   215  1.039059276120029E-004
                   216  5.305414074228157E-013
                   217  1.152221223527395E-003
                   218 -1.480609984960156E-003
                   219 -4.034688431312094E-004
                   220  2.006546795612048E-004
                   221  5.227694655527200E-012
                   222 -4.672364793244657E-004
                   223 -5.863044152050472E-004
                   224  4.955842209802747E-006
                   225 -7.024583159384472E-005
                   226  4.227927473085790E-012
                   227 -2.909597160891125E-004
                   228 -4.176134549093200E-004
                   229 -4.371360433381966E-006
                   230 -1.872707461738440E-005
                   231  3.358459029265666E-013
                   232 -8.574634663384754E-005
                   233 -5.298685206530673E-004
                   234  3.486639545065177E-006
                   235  2.228675433271510E-007
                   236 -1.845525235965908E-012
                   237 -1.723013001539950E-004
                   238 -4.009670842541895E-004
                   239  7.485559706280558E-006
                   240  3.649478560242094E-006
                   241  2.397309965991408E-012
                   242  1.592860714025994E-005
                   243 -3.193957425745519E-005
                   244 -8.267957111153685E-007
                   245  2.205694927596957E-005
                   246 -9.338742150577008E-013
 Sym= __2_A__
 Ene=   2.00000000000000     
 Spin= Alpha
 Occup=    1.00000000000000     
                     1 -4.836342607852327E-005
                     2 -3.208480640623539E-004
                     3  2.685458303939943E-003
                     4  1.444612865827521E-004
                     5  1.359175792819581E-003
                     6 -3.530280629193037E-004
                     7  3.003091015194385E-003
                     8 -2.910870611629481E-012
                     9 -7.561895148490552E-005
                    10 -1.052656737989182E-004
                    11  1.011786701795748E-011
                    12  1.201883110237225E-004
                    13 -4.389780691738998E-004
                    14  5.118204732195775E-012
                    15  3.328360470758200E-005
                    16 -2.534660606717432E-012
                    17 -1.342583885810327E-012
                    18 -4.806508640640428E-005
                    19  7.066859755427041E-006
                    20 -1.219318666818635E-004
                    21  7.869809425277630E-013
                    22  8.889138599019681E-013
                    23  1.780382924320779E-004
                    24 -9.442829042162847E-006
                    25 -1.526744114896880E-012
                    26 -1.956647774326726E-005
                    27  8.815857333163853E-005
                    28 -1.390913063369561E-012
                    29 -6.287921494556001E-013
                    30 -2.203721088322232E-005
                    31  1.443065459862603E-004
                    32   1.00103141669193     
                    33  9.335486665004672E-003
                    34  2.716603702086829E-003
                    35 -8.122271982771130E-003
                    36 -1.084951778828369E-004
                    37 -3.569669307521862E-003
                    38  1.087564705974513E-011
                    39  1.186433223185014E-004
                    40  4.172351979229540E-004
                    41 -1.525938736895404E-011
                    42  5.790147036469235E-005
                    43  4.239432285705270E-003
                    44 -3.313026370716280E-012
                    45 -5.667502119529544E-004
                    46  4.151534058656234E-013
                    47  1.934126949658994E-012
                    48 -1.975480640705875E-004
                    49 -7.873061294468908E-006
                    50  5.482299536491741E-004
                    51 -5.055646693848726E-012
                    52  3.553765466795925E-012
                    53 -9.186063764549308E-004
                    54  7.038717263649303E-005
                    55 -2.463609955516794E-012
                    56 -3.142059143416501E-006
                    57  9.401556729544372E-005
                    58  7.494209216769324E-013
                    59  2.128606712203168E-012
                    60  3.299330092873869E-007
                    61  4.011323074809364E-004
                    62  9.087577514135189E-003
                    63 -2.084371347750599E-003
                    64 -2.971026284376086E-004
                    65  3.080123371884431E-003
                    66 -1.519268781854689E-005
                    67  1.038102624093526E-004
                    68 -4.133013233482757E-012
                    69  7.420983555371898E-004
                    70 -1.504306747332011E-005
                    71 -2.260613541580438E-012
                    72 -2.061839128185846E-003
                    73  5.782121838336847E-005
                    74 -1.206491852482058E-011
                    75  2.563709867770312E-005
                    76  6.356844407932044E-013
                    77  1.512818054249484E-012
                    78 -2.395101268957400E-006
                    79  3.869843362921406E-007
                    80 -4.101405032099371E-004
                    81  1.564842970551524E-013
                    82 -9.254477317887771E-012
                    83 -5.827579651626734E-004
                    84 -3.799318973238797E-004
                    85 -8.403772598600821E-013
                    86  3.351420047808489E-005
                    87 -5.922080646071209E-005
                    88  2.994284882602106E-012
                    89 -3.690546151169595E-012
                    90  5.171715308241918E-005
                    91  1.406476522189135E-004
                    92  9.869172346123748E-003
                    93 -2.067530637978114E-003
                    94 -2.843750022897885E-004
                    95  3.031446537570331E-003
                    96  9.711612055890307E-006
                    97  7.130728790876008E-005
                    98  1.019374537317315E-011
                    99 -6.640083869238906E-004
                   100  4.486067589756768E-005
                   101 -5.159179954771682E-012
                   102  2.053504618816253E-003
                   103  6.797756194423182E-005
                   104 -1.954168918969724E-012
                   105  3.022804186493894E-005
                   106  5.024931285651644E-013
                   107 -3.643704587366848E-014
                   108 -3.845720094010098E-006
                   109 -7.433343512274469E-006
                   110 -4.135108503533065E-004
                   111 -7.911411677934631E-013
                   112  7.848762357180856E-013
                   113 -6.209742975521990E-004
                   114  3.743334335770723E-004
                   115 -2.080986984304467E-012
                   116 -3.164628262151725E-005
                   117 -5.948181430487075E-005
                   118 -1.838543415574917E-013
                   119  2.285767334255149E-012
                   120 -4.938457250626908E-005
                   121  1.361826684573485E-004
                   122 -1.558805819802428E-004
                   123 -6.734813137479082E-004
                   124  2.240047584622793E-004
                   125 -9.945606613290057E-005
                   126 -3.347538827384363E-006
                   127 -3.342060294483350E-004
                   128 -1.181050187903493E-011
                   129 -6.235679262196979E-005
                   130  5.334446321507858E-004
                   131  1.187478185287271E-011
                   132  3.117233783818096E-004
                   133  7.535521677886506E-004
                   134  2.426109117242448E-011
                   135  1.856933209114064E-005
                   136  1.201246505343733E-012
                   137 -9.688256611402994E-013
                   138  3.887904499347770E-006
                   139  5.250733765533267E-005
                   140  1.375405578052265E-004
                   141  3.943820295688787E-012
                   142 -6.512682228565939E-012
                   143  2.399879154293298E-004
                   144 -1.799111219554327E-004
                   145  2.680685923810518E-012
                   146  7.285861538727187E-006
                   147 -3.386201069950607E-005
                   148 -3.750219297686004E-013
                   149  7.434174079527553E-013
                   150 -4.772232021461024E-005
                   151  2.862861539743875E-005
                   152 -1.333392990275786E-004
                   153 -6.823839887861871E-004
                   154  2.300020980417823E-004
                   155 -1.356171762859691E-004
                   156  1.766421915502385E-006
                   157 -3.258492628567014E-004
                   158 -1.660530655624020E-011
                   159  4.216007850318158E-005
                   160  5.669460673780862E-004