[Molden Format]
[Atoms] AU
  N     1    7    -4.2907334100    0.0000000000    0.0000000000        
  C     2    6    -1.7772236300    0.0000000000    0.0000000000        
  C     3    6    -0.4111016300    0.0000000000   -2.3389203600        
  C     4    6    -0.4111016300    0.0000000000    2.3389203600        
  C     5    6     2.1639215300    0.0000000000   -2.2998668500        
  C     6    6     2.1639215300    0.0000000000    2.2998668500        
  C     7    6     3.4755251800    0.0000000000    0.0000000000        
  H     8    1    -5.3103747800    0.0000000000   -1.6528040300        
  H     9    1    -5.3103747800    0.0000000000    1.6528040300        
  H    10    1    -1.4447408500    0.0000000000   -4.0745407300        
  H    11    1    -1.4447408500    0.0000000000    4.0745407300        
  H    12    1     3.1963889500    0.0000000000   -4.0420632100        
  H    13    1     3.1963889500    0.0000000000    4.0420632100        
  H    14    1     5.5020335600    0.0000000000    0.0000000000        
[5D]
[7F]
[GTO]
  1  0
   s    12 1.00
  0.114200D+05  0.172695D-04
  0.171200D+04  0.134411D-03
  0.389300D+03  0.694561D-03
  0.110000D+03  0.278531D-02
  0.355700D+02  0.863457D-02
  0.125400D+02  0.199805D-01
  0.464400D+01  0.262908D-01
  0.129300D+01 -0.243845D-01
  0.511800D+00 -0.924934D-01
  0.178700D+00 -0.339683D+00
  0.246240D-01  0.345111D+00
  0.112530D-01  0.752750D+00
   s    10 1.00
  0.114200D+05  0.523000D-03
  0.171200D+04  0.404500D-02
  0.389300D+03  0.207750D-01
  0.110000D+03  0.807269D-01
  0.355700D+02  0.233074D+00
  0.125400D+02  0.433501D+00
  0.464400D+01  0.347472D+00
  0.129300D+01  0.412620D-01
  0.511800D+00 -0.850799D-02
  0.178700D+00  0.238400D-02
   s    10 1.00
  0.114200D+05 -0.115000D-03
  0.171200D+04 -0.895000D-03
  0.389300D+03 -0.462400D-02
  0.110000D+03 -0.185280D-01
  0.355700D+02 -0.573390D-01
  0.125400D+02 -0.132076D+00
  0.464400D+01 -0.172510D+00
  0.129300D+01  0.151814D+00
  0.511800D+00  0.599944D+00
  0.178700D+00  0.387462D+00
   s     1 1.00
  0.129300D+01  0.100000D+01
   s     1 1.00
  0.178700D+00  0.100000D+01
   p     5 1.00
  0.266300D+02  0.146700D-01
  0.594800D+01  0.917640D-01
  0.174200D+01  0.298683D+00
  0.555000D+00  0.498487D+00
  0.172500D+00  0.337023D+00
   p     1 1.00
  0.174200D+01  0.100000D+01
   p     1 1.00
  0.555000D+00  0.100000D+01
   d     1 1.00
  0.165400D+01  0.100000D+01
   d     1 1.00
  0.469000D+00  0.100000D+01
   f     1 1.00
  0.109300D+01  0.100000D+01
  
  2  0
   s    10 1.00
  0.823600D+04  0.531000D-03
  0.123500D+04  0.410800D-02
  0.280800D+03  0.210870D-01
  0.792700D+02  0.818530D-01
  0.255900D+02  0.234817D+00
  0.899700D+01  0.434401D+00
  0.331900D+01  0.346129D+00
  0.905900D+00  0.393780D-01
  0.364300D+00 -0.898300D-02
  0.128500D+00  0.238500D-02
   s    10 1.00
  0.823600D+04 -0.113000D-03
  0.123500D+04 -0.878000D-03
  0.280800D+03 -0.454000D-02
  0.792700D+02 -0.181330D-01
  0.255900D+02 -0.557600D-01
  0.899700D+01 -0.126895D+00
  0.331900D+01 -0.170352D+00
  0.905900D+00  0.140382D+00
  0.364300D+00  0.598684D+00
  0.128500D+00  0.395389D+00
   s     1 1.00
  0.905900D+00  0.100000D+01
   s     1 1.00
  0.364300D+00  0.100000D+01
   p     5 1.00
  0.187100D+02  0.140310D-01
  0.413300D+01  0.868660D-01
  0.120000D+01  0.290216D+00
  0.382700D+00  0.501008D+00
  0.120900D+00  0.343406D+00
   p     1 1.00
  0.382700D+00  0.100000D+01
   p     1 1.00
  0.120900D+00  0.100000D+01
   d     1 1.00
  0.109700D+01  0.100000D+01
   d     1 1.00
  0.318000D+00  0.100000D+01
   f     1 1.00
  0.761000D+00  0.100000D+01
  
  3  0
   s    10 1.00
  0.823600D+04  0.531000D-03
  0.123500D+04  0.410800D-02
  0.280800D+03  0.210870D-01
  0.792700D+02  0.818530D-01
  0.255900D+02  0.234817D+00
  0.899700D+01  0.434401D+00
  0.331900D+01  0.346129D+00
  0.905900D+00  0.393780D-01
  0.364300D+00 -0.898300D-02
  0.128500D+00  0.238500D-02
   s    10 1.00
  0.823600D+04 -0.113000D-03
  0.123500D+04 -0.878000D-03
  0.280800D+03 -0.454000D-02
  0.792700D+02 -0.181330D-01
  0.255900D+02 -0.557600D-01
  0.899700D+01 -0.126895D+00
  0.331900D+01 -0.170352D+00
  0.905900D+00  0.140382D+00
  0.364300D+00  0.598684D+00
  0.128500D+00  0.395389D+00
   s     1 1.00
  0.905900D+00  0.100000D+01
   s     1 1.00
  0.364300D+00  0.100000D+01
   p     5 1.00
  0.187100D+02  0.140310D-01
  0.413300D+01  0.868660D-01
  0.120000D+01  0.290216D+00
  0.382700D+00  0.501008D+00
  0.120900D+00  0.343406D+00
   p     1 1.00
  0.382700D+00  0.100000D+01
   p     1 1.00
  0.120900D+00  0.100000D+01
   d     1 1.00
  0.109700D+01  0.100000D+01
   d     1 1.00
  0.318000D+00  0.100000D+01
   f     1 1.00
  0.761000D+00  0.100000D+01
  
  4  0
   s    10 1.00
  0.823600D+04  0.531000D-03
  0.123500D+04  0.410800D-02
  0.280800D+03  0.210870D-01
  0.792700D+02  0.818530D-01
  0.255900D+02  0.234817D+00
  0.899700D+01  0.434401D+00
  0.331900D+01  0.346129D+00
  0.905900D+00  0.393780D-01
  0.364300D+00 -0.898300D-02
  0.128500D+00  0.238500D-02
   s    10 1.00
  0.823600D+04 -0.113000D-03
  0.123500D+04 -0.878000D-03
  0.280800D+03 -0.454000D-02
  0.792700D+02 -0.181330D-01
  0.255900D+02 -0.557600D-01
  0.899700D+01 -0.126895D+00
  0.331900D+01 -0.170352D+00
  0.905900D+00  0.140382D+00
  0.364300D+00  0.598684D+00
  0.128500D+00  0.395389D+00
   s     1 1.00
  0.905900D+00  0.100000D+01
   s     1 1.00
  0.364300D+00  0.100000D+01
   p     5 1.00
  0.187100D+02  0.140310D-01
  0.413300D+01  0.868660D-01
  0.120000D+01  0.290216D+00
  0.382700D+00  0.501008D+00
  0.120900D+00  0.343406D+00
   p     1 1.00
  0.382700D+00  0.100000D+01
   p     1 1.00
  0.120900D+00  0.100000D+01
   d     1 1.00
  0.109700D+01  0.100000D+01
   d     1 1.00
  0.318000D+00  0.100000D+01
   f     1 1.00
  0.761000D+00  0.100000D+01
  
  5  0
   s    10 1.00
  0.823600D+04  0.531000D-03
  0.123500D+04  0.410800D-02
  0.280800D+03  0.210870D-01
  0.792700D+02  0.818530D-01
  0.255900D+02  0.234817D+00
  0.899700D+01  0.434401D+00
  0.331900D+01  0.346129D+00
  0.905900D+00  0.393780D-01
  0.364300D+00 -0.898300D-02
  0.128500D+00  0.238500D-02
   s    10 1.00
  0.823600D+04 -0.113000D-03
  0.123500D+04 -0.878000D-03
  0.280800D+03 -0.454000D-02
  0.792700D+02 -0.181330D-01
  0.255900D+02 -0.557600D-01
  0.899700D+01 -0.126895D+00
  0.331900D+01 -0.170352D+00
  0.905900D+00  0.140382D+00
  0.364300D+00  0.598684D+00
  0.128500D+00  0.395389D+00
   s     1 1.00
  0.905900D+00  0.100000D+01
   s     1 1.00
  0.364300D+00  0.100000D+01
   p     5 1.00
  0.187100D+02  0.140310D-01
  0.413300D+01  0.868660D-01
  0.120000D+01  0.290216D+00
  0.382700D+00  0.501008D+00
  0.120900D+00  0.343406D+00
   p     1 1.00
  0.382700D+00  0.100000D+01
   p     1 1.00
  0.120900D+00  0.100000D+01
   d     1 1.00
  0.109700D+01  0.100000D+01
   d     1 1.00
  0.318000D+00  0.100000D+01
   f     1 1.00
  0.761000D+00  0.100000D+01
  
  6  0
   s    10 1.00
  0.823600D+04  0.531000D-03
  0.123500D+04  0.410800D-02
  0.280800D+03  0.210870D-01
  0.792700D+02  0.818530D-01
  0.255900D+02  0.234817D+00
  0.899700D+01  0.434401D+00
  0.331900D+01  0.346129D+00
  0.905900D+00  0.393780D-01
  0.364300D+00 -0.898300D-02
  0.128500D+00  0.238500D-02
   s    10 1.00
  0.823600D+04 -0.113000D-03
  0.123500D+04 -0.878000D-03
  0.280800D+03 -0.454000D-02
  0.792700D+02 -0.181330D-01
  0.255900D+02 -0.557600D-01
  0.899700D+01 -0.126895D+00
  0.331900D+01 -0.170352D+00
  0.905900D+00  0.140382D+00
  0.364300D+00  0.598684D+00
  0.128500D+00  0.395389D+00
   s     1 1.00
  0.905900D+00  0.100000D+01
   s     1 1.00
  0.364300D+00  0.100000D+01
   p     5 1.00
  0.187100D+02  0.140310D-01
  0.413300D+01  0.868660D-01
  0.120000D+01  0.290216D+00
  0.382700D+00  0.501008D+00
  0.120900D+00  0.343406D+00
   p     1 1.00
  0.382700D+00  0.100000D+01
   p     1 1.00
  0.120900D+00  0.100000D+01
   d     1 1.00
  0.109700D+01  0.100000D+01
   d     1 1.00
  0.318000D+00  0.100000D+01
   f     1 1.00
  0.761000D+00  0.100000D+01
  
  7  0
   s    10 1.00
  0.823600D+04  0.531000D-03
  0.123500D+04  0.410800D-02
  0.280800D+03  0.210870D-01
  0.792700D+02  0.818530D-01
  0.255900D+02  0.234817D+00
  0.899700D+01  0.434401D+00
  0.331900D+01  0.346129D+00
  0.905900D+00  0.393780D-01
  0.364300D+00 -0.898300D-02
  0.128500D+00  0.238500D-02
   s    10 1.00
  0.823600D+04 -0.113000D-03
  0.123500D+04 -0.878000D-03
  0.280800D+03 -0.454000D-02
  0.792700D+02 -0.181330D-01
  0.255900D+02 -0.557600D-01
  0.899700D+01 -0.126895D+00
  0.331900D+01 -0.170352D+00
  0.905900D+00  0.140382D+00
  0.364300D+00  0.598684D+00
  0.128500D+00  0.395389D+00
   s     1 1.00
  0.905900D+00  0.100000D+01
   s     1 1.00
  0.364300D+00  0.100000D+01
   p     5 1.00
  0.187100D+02  0.140310D-01
  0.413300D+01  0.868660D-01
  0.120000D+01  0.290216D+00
  0.382700D+00  0.501008D+00
  0.120900D+00  0.343406D+00
   p     1 1.00
  0.382700D+00  0.100000D+01
   p     1 1.00
  0.120900D+00  0.100000D+01
   d     1 1.00
  0.109700D+01  0.100000D+01
   d     1 1.00
  0.318000D+00  0.100000D+01
   f     1 1.00
  0.761000D+00  0.100000D+01
  
  8  0
   s     4 1.00
  0.130100D+02  0.196850D-01
  0.196200D+01  0.137977D+00
  0.444600D+00  0.478148D+00
  0.122000D+00  0.501240D+00
   s     1 1.00
  0.122000D+00  0.100000D+01
   p     1 1.00
  0.727000D+00  0.100000D+01
  
  9  0
   s     4 1.00
  0.130100D+02  0.196850D-01
  0.196200D+01  0.137977D+00
  0.444600D+00  0.478148D+00
  0.122000D+00  0.501240D+00
   s     1 1.00
  0.122000D+00  0.100000D+01
   p     1 1.00
  0.727000D+00  0.100000D+01
  
 10  0
   s     4 1.00
  0.130100D+02  0.196850D-01
  0.196200D+01  0.137977D+00
  0.444600D+00  0.478148D+00
  0.122000D+00  0.501240D+00
   s     1 1.00
  0.122000D+00  0.100000D+01
   p     1 1.00
  0.727000D+00  0.100000D+01
  
 11  0
   s     4 1.00
  0.130100D+02  0.196850D-01
  0.196200D+01  0.137977D+00
  0.444600D+00  0.478148D+00
  0.122000D+00  0.501240D+00
   s     1 1.00
  0.122000D+00  0.100000D+01
   p     1 1.00
  0.727000D+00  0.100000D+01
  
 12  0
   s     4 1.00
  0.130100D+02  0.196850D-01
  0.196200D+01  0.137977D+00
  0.444600D+00  0.478148D+00
  0.122000D+00  0.501240D+00
   s     1 1.00
  0.122000D+00  0.100000D+01
   p     1 1.00
  0.727000D+00  0.100000D+01
  
 13  0
   s     4 1.00
  0.130100D+02  0.196850D-01
  0.196200D+01  0.137977D+00
  0.444600D+00  0.478148D+00
  0.122000D+00  0.501240D+00
   s     1 1.00
  0.122000D+00  0.100000D+01
   p     1 1.00
  0.727000D+00  0.100000D+01
  
 14  0
   s     4 1.00
  0.130100D+02  0.196850D-01
  0.196200D+01  0.137977D+00
  0.444600D+00  0.478148D+00
  0.122000D+00  0.501240D+00
   s     1 1.00
  0.122000D+00  0.100000D+01
   p     1 1.00
  0.727000D+00  0.100000D+01
  
[MO]
 Sym= __1_A'_
 Ene=   1.00000000000000     
 Spin= Alpha
 Occup=    1.00000000000000     
                     1  4.178735911642249E-005
                     2  0.998070791715490     
                     3  9.271350703070048E-003
                     4  2.061399131347336E-003
                     5  1.526228877057488E-003
                     6  4.485087738508208E-003
                     7  1.355156398162118E-011
                     8  0.000000000000000E+000
                     9 -1.185895058490048E-004
                    10  9.044761213836778E-013
                    11  0.000000000000000E+000
                    12 -7.815978921681206E-005
                    13  1.589549984265675E-012
                    14  0.000000000000000E+000
                    15 -3.239028484429938E-005
                    16  0.000000000000000E+000
                    17  0.000000000000000E+000
                    18  2.923937918381904E-004
                    19  6.929597809280891E-013
                    20 -5.876878914868911E-004
                    21  0.000000000000000E+000
                    22  0.000000000000000E+000
                    23 -1.494703237682275E-004
                    24 -4.300198001846862E-013
                    25  0.000000000000000E+000
                    26 -1.888975837995714E-004
                    27 -1.212667473091387E-013
                    28  0.000000000000000E+000
                    29  0.000000000000000E+000
                    30 -9.376128326290955E-005
                    31  2.582939932514306E-013
                    32 -3.712434469754124E-004
                    33  2.713601694491325E-003
                    34  1.460269942732321E-004
                    35 -2.436147555784266E-004
                    36 -7.114268031216214E-003
                    37  1.069879813493582E-011
                    38  0.000000000000000E+000
                    39  3.886247732138925E-004
                    40 -4.640106261366883E-013
                    41  0.000000000000000E+000
                    42  4.409499234696287E-003
                    43  1.627033162062680E-012
                    44  0.000000000000000E+000
                    45 -2.947916936753334E-004
                    46  0.000000000000000E+000
                    47  0.000000000000000E+000
                    48  2.331923686122400E-004
                    49 -6.929175073577400E-013
                    50  3.773090082743916E-004
                    51  0.000000000000000E+000
                    52  0.000000000000000E+000
                    53  2.689293827992532E-004
                    54 -2.420294564985350E-013
                    55  0.000000000000000E+000
                    56 -1.302072444001647E-004
                    57  1.597284959347855E-013
                    58  0.000000000000000E+000
                    59  0.000000000000000E+000
                    60 -4.029025048101118E-005
                    61 -8.997003015557231E-014
                    62 -2.113686777708727E-004
                    63 -1.681881356885255E-003
                    64  6.058980567533163E-005
                    65  5.537825305923556E-004
                    66  1.015383633614334E-003
                    67  3.128179600661513E-012
                    68 -8.410218579715097E-004
                    69  6.246271983912857E-004
                    70 -3.663920684715515E-013
                    71 -3.605243091258944E-005
                    72 -1.310761174094252E-004
                    73 -1.657117513447697E-012
                    74 -5.630816524040014E-004
                    75 -8.273738320590973E-005
                    76 -8.436070038303843E-006
                    77 -1.049852440040349E-014
                    78  5.914476368961926E-005
                    79 -3.697675785550243E-014
                    80  3.980750655110222E-005
                    81  2.128303301486026E-004
                    82  2.945131086693829E-013
                    83 -6.375760223207722E-006
                    84  2.440636811087773E-013
                    85 -8.219642918670169E-006
                    86 -7.299417434448076E-005
                    87  2.346278777326948E-013
                    88 -3.149149830710756E-005
                    89 -8.065511600779039E-014
                    90 -6.160555628531393E-005
                    91  1.105416579608011E-013
                    92 -2.113686777708727E-004
                    93 -1.681881356885255E-003
                    94  6.058980567533163E-005
                    95  5.537825305923556E-004
                    96  1.015383633614334E-003
                    97  3.128179600661513E-012
                    98  8.410218579715097E-004
                    99  6.246271983912857E-004
                   100 -3.663920684715515E-013
                   101  3.605243091258944E-005
                   102 -1.310761174094252E-004
                   103 -1.657117513447697E-012
                   104  5.630816524040014E-004
                   105 -8.273738320590973E-005
                   106  8.436070038303843E-006
                   107  1.049852440040349E-014
                   108  5.914476368961926E-005
                   109 -3.697675785550243E-014
                   110  3.980750655110222E-005
                   111 -2.128303301486026E-004
                   112 -2.945131086693829E-013
                   113 -6.375760223207722E-006
                   114  2.440636811087773E-013
                   115  8.219642918670169E-006
                   116 -7.299417434448076E-005
                   117  2.346278777326948E-013
                   118  3.149149830710756E-005
                   119  8.065511600779039E-014
                   120 -6.160555628531393E-005
                   121  1.105416579608011E-013
                   122 -1.477580684295183E-004
                   123  7.083882155034224E-006
                   124  1.107995845059567E-004
                   125  1.287012846607508E-004
                   126 -7.999511729539034E-004
                   127  1.670818406764206E-012
                   128  4.134450503757253E-005
                   129  3.512122542773179E-004
                   130  1.473479291374809E-013
                   131  2.007205482428196E-005
                   132  7.083424430417969E-004
                   133  4.830915863770746E-013
                   134 -1.723614223238708E-004
                   135  7.381142902249615E-006
                   136  1.804776705077896E-006
                   137 -1.331497289465992E-013
                   138 -1.579808728199173E-005
                   139 -2.638893397397236E-013
                   140  8.361044107912907E-005
                   141  1.699316436040596E-004
                   142 -1.336993229711173E-013
                   143 -1.700229999389099E-004
                   144  7.600741020023761E-014
                   145 -2.028080835603970E-006
                   146 -1.638617064942998E-005
                   147  3.445819984058578E-014
                   148  3.334719430864604E-006
                   149 -9.127222544357161E-014
                   150 -3.699693347691711E-005
                   151 -3.060863686694837E-015
                   152 -1.477580684295183E-004
                   153  7.083882155034224E-006
                   154  1.107995845059567E-004
                   155  1.287012846607508E-004
                   156 -7.999511729539034E-004
                   157  1.670818406764206E-012
                   158 -4.134450503757253E-005
                   159  3.512122542773179E-004
                   160  1.473479291374809E-013
                   161 -2.007205482428196E-005
                   162  7.083424430417969E-004
                   163  4.830915863770746E-013
                   164  1.723614223238708E-004
                   165  7.381142902249615E-006
                   166 -1.804776705077896E-006
                   167  1.331497289465992E-013
                   168 -1.579808728199173E-005
                   169 -2.638893397397236E-013
                   170  8.361044107912907E-005
                   171 -1.699316436040596E-004
                   172  1.336993229711173E-013
                   173 -1.700229999389099E-004
                   174  7.600741020023761E-014
                   175  2.028080835603970E-006
                   176 -1.638617064942998E-005
                   177  3.445819984058578E-014
                   178 -3.334719430864604E-006
                   179  9.127222544357161E-014
                   180 -3.699693347691711E-005
                   181 -3.060863686694837E-015
                   182 -1.217626677133675E-004
                   183 -3.266395040204718E-004
                   184  3.219308805099307E-005
                   185  1.474111491750182E-004
                   186 -4.066718102280183E-005
                   187  1.049158596042416E-012
                   188  0.000000000000000E+000
                   189  1.797932922616676E-005
                   190  5.043269087169181E-013
                   191  0.000000000000000E+000
                   192  5.486799904966050E-005
                   193 -1.324410025510745E-012
                   194  0.000000000000000E+000
                   195 -1.752868969051466E-005
                   196  0.000000000000000E+000
                   197  0.000000000000000E+000
                   198  1.207729303579452E-005
                   199 -2.661700051439856E-015
                   200 -7.274363854612871E-005
                   201  0.000000000000000E+000
                   202  0.000000000000000E+000
                   203  2.621467496037316E-005
                   204 -7.591842100005608E-015
                   205  0.000000000000000E+000
                   206 -9.664964276352569E-006
                   207  3.366603648550097E-013
                   208  0.000000000000000E+000
                   209  0.000000000000000E+000
                   210 -7.264317072141295E-006
                   211 -1.934588937146686E-014
                   212  3.855734899091166E-003
                   213 -2.325768116223092E-003
                   214  3.805870538619565E-004
                   215  2.768177854804195E-013
                   216  4.677931639904489E-004
                   217  3.855734899091166E-003
                   218 -2.325768116223092E-003
                   219  3.805870538619565E-004
                   220  2.768177854804195E-013
                   221 -4.677931639904489E-004
                   222 -6.698929857935126E-004
                   223 -1.197645615127194E-004
                   224 -4.529075094168500E-005
                   225 -1.138854932237185E-013
                   226 -1.696805885220186E-005
                   227 -6.698929857935126E-004
                   228 -1.197645615127194E-004
                   229 -4.529075094168500E-005
                   230 -1.138854932237185E-013
                   231  1.696805885220186E-005
                   232 -2.339350441602418E-004
                   233 -4.093747061147302E-004
                   234  5.939789553877219E-006
                   235  9.005724953867140E-014
                   236 -5.675723721575494E-006
                   237 -2.339350441602418E-004
                   238 -4.093747061147302E-004
                   239  5.939789553877219E-006
                   240  9.005724953867140E-014
                   241  5.675723721575494E-006
                   242  6.908899845385073E-005
                   243 -1.310384177774957E-004
                   244  1.439018891283055E-005
                   245  1.355897840593495E-013
                   246  0.000000000000000E+000
 Sym= __2_A'_
 Ene=   2.00000000000000     
 Spin= Alpha
 Occup=    1.00000000000000     
                     1 -4.667571910484366E-005
                     2 -2.158640528764625E-004
                     3  2.293792713019711E-003
                     4  1.018626045933725E-004
                     5  1.263800575477689E-003
                     6  3.012064521952264E-003
                     7  2.178935195154609E-012
                     8  0.000000000000000E+000
                     9 -4.988163360644745E-005
                    10 -6.530614447164862E-013
                    11  0.000000000000000E+000
                    12 -5.489532240036829E-004
                    13  1.549298391290127E-012
                    14  0.000000000000000E+000
                    15 -7.796347409480612E-005
                    16  0.000000000000000E+000
                    17  0.000000000000000E+000
                    18  4.284620399079050E-006
                    19 -3.980788273699760E-013
                    20  4.347700033416840E-004
                    21  0.000000000000000E+000
                    22  0.000000000000000E+000
                    23 -7.883482619223480E-005
                    24  1.547076759936390E-012
                    25  0.000000000000000E+000
                    26  1.107528093272668E-004
                    27  4.994845883231896E-013
                    28  0.000000000000000E+000
                    29  0.000000000000000E+000
                    30  1.420288271972068E-004
                    31 -6.396465924544164E-014
                    32   1.00106049080732     
                    33  9.290498958189801E-003
                    34  2.631913042839036E-003
                    35 -7.762634258812395E-003
                    36 -4.151443307934387E-003
                    37  3.844000423029439E-012
                    38  0.000000000000000E+000
                    39  1.004271615790537E-003
                    40  2.638929548573149E-013
                    41  0.000000000000000E+000
                    42  4.449280965558586E-003
                    43  1.282840267288466E-012
                    44  0.000000000000000E+000
                    45  1.351614284140421E-004
                    46  0.000000000000000E+000
                    47  0.000000000000000E+000
                    48  6.285195006457984E-004
                    49  2.818752120915933E-013
                    50 -1.105222000056400E-003
                    51  0.000000000000000E+000
                    52  0.000000000000000E+000
                    53  3.475398993426234E-005
                    54  1.093196403125750E-012
                    55  0.000000000000000E+000
                    56  4.000612965502761E-004
                    57  7.434201872742797E-013
                    58  0.000000000000000E+000
                    59  0.000000000000000E+000
                    60  1.795608972328428E-004
                    61 -3.094128439974390E-013
                    62  7.187598836918411E-003
                    63 -2.058744894950461E-003
                    64 -2.763524753799117E-004
                    65  3.040408663495445E-003
                    66 -7.579601949284052E-006
                    67  1.680918708122995E-012
                    68  9.398098352259654E-005
                    69  1.687309012559617E-005
                    70 -2.039768120827855E-012
                    71  6.012905299963937E-004
                    72  9.601804820738269E-005
                    73 -1.268177698485935E-012
                    74 -2.098456096465850E-003
                    75 -1.757773210936485E-005
                    76  1.368179256399763E-005
                    77  3.003400233037430E-013
                    78 -2.749100071043306E-005
                    79  3.800518726723618E-014
                    80 -3.720030523616099E-004
                    81 -4.229335520446847E-004
                    82 -9.958272031926831E-013
                    83  6.669197096264710E-004
                    84 -7.113342296926761E-013
                    85  6.797352619272535E-005
                    86  1.455055119792706E-004
                    87 -1.887194861250173E-014
                    88  5.818498708144602E-006
                    89  5.196635746417938E-013
                    90 -1.988515335435613E-005
                    91 -9.131886143088617E-013
                    92  7.187598836918411E-003
                    93 -2.058744894950461E-003
                    94 -2.763524753799117E-004
                    95  3.040408663495445E-003
                    96 -7.579601949284052E-006
                    97  1.680918708122995E-012
                    98 -9.398098352259654E-005
                    99  1.687309012559617E-005
                   100 -2.039768120827855E-012
                   101 -6.012905299963937E-004
                   102  9.601804820738269E-005
                   103 -1.268177698485935E-012
                   104  2.098456096465850E-003
                   105 -1.757773210936485E-005
                   106 -1.368179256399763E-005
                   107 -3.003400233037430E-013
                   108 -2.749100071043306E-005
                   109  3.800518726723618E-014
                   110 -3.720030523616099E-004
                   111  4.229335520446847E-004
                   112  9.958272031926831E-013
                   113  6.669197096264710E-004
                   114 -7.113342296926761E-013
                   115 -6.797352619272535E-005
                   116  1.455055119792706E-004
                   117 -1.887194861250173E-014
                   118 -5.818498708144602E-006
                   119 -5.196635746417938E-013
                   120 -1.988515335435613E-005
                   121 -9.131886143088617E-013
                   122 -2.333235700869545E-004
                   123 -7.539893919194681E-004
                   124  2.243961280660487E-004
                   125 -1.095937243282852E-004
                   126 -2.559291470409485E-004
                   127  1.277683196894842E-012
                   128 -1.799244443129254E-005
                   129  5.352410798914719E-004
                   130  3.184404447917928E-013
                   131 -9.638913711127989E-006
                   132  7.514956849666590E-004
                   133  4.799853234944153E-013
                   134  3.288447662259173E-004
                   135 -5.096778180236277E-006
                   136  5.166908763279374E-005
                   137 -8.225062222104678E-014
                   138 -1.898510879609051E-005
                   139 -7.154416958973895E-013
                   140  1.558364836741824E-004
                   141 -2.182440826805975E-004
                   142  7.599949833694413E-013
                   143 -2.439048561834388E-004
                   144 -4.304270897729881E-013
                   145 -2.964229211307548E-005
                   146  3.230685580950598E-005
                   147 -1.981651265201938E-013
                   148 -2.925158080263732E-005
                   149  1.287240922055829E-013
                   150 -2.336798019718043E-005
                   151  9.754753390392294E-014
                   152 -2.333235700869545E-004
                   153 -7.539893919194681E-004
                   154  2.243961280660487E-004
                   155 -1.095937243282852E-004
                   156 -2.559291470409485E-004
                   157  1.277683196894842E-012
                   158  1.799244443129254E-005
                   159  5.352410798914719E-004
                   160  3.184404447917928E-013