[Molden Format]
[Atoms] AU
  N     1    7    -4.2907334100    0.0000000000    0.0000000000        
  C     2    6    -1.7772236300    0.0000000000    0.0000000000        
  C     3    6    -0.4111016300    0.0000000000   -2.3389203600        
  C     4    6    -0.4111016300    0.0000000000    2.3389203600        
  C     5    6     2.1639215300    0.0000000000   -2.2998668500        
  C     6    6     2.1639215300    0.0000000000    2.2998668500        
  C     7    6     3.4755251800    0.0000000000    0.0000000000        
  H     8    1    -5.3103747800    0.0000000000   -1.6528040300        
  H     9    1    -5.3103747800    0.0000000000    1.6528040300        
  H    10    1    -1.4447408500    0.0000000000   -4.0745407300        
  H    11    1    -1.4447408500    0.0000000000    4.0745407300        
  H    12    1     3.1963889500    0.0000000000   -4.0420632100        
  H    13    1     3.1963889500    0.0000000000    4.0420632100        
  H    14    1     5.5020335600    0.0000000000    0.0000000000        
[5D]
[7F]
[GTO]
  1  0
   s    12 1.00
  0.114200D+05  0.172695D-04
  0.171200D+04  0.134411D-03
  0.389300D+03  0.694561D-03
  0.110000D+03  0.278531D-02
  0.355700D+02  0.863457D-02
  0.125400D+02  0.199805D-01
  0.464400D+01  0.262908D-01
  0.129300D+01 -0.243845D-01
  0.511800D+00 -0.924934D-01
  0.178700D+00 -0.339683D+00
  0.246240D-01  0.345111D+00
  0.112530D-01  0.752750D+00
   s    10 1.00
  0.114200D+05  0.523000D-03
  0.171200D+04  0.404500D-02
  0.389300D+03  0.207750D-01
  0.110000D+03  0.807269D-01
  0.355700D+02  0.233074D+00
  0.125400D+02  0.433501D+00
  0.464400D+01  0.347472D+00
  0.129300D+01  0.412620D-01
  0.511800D+00 -0.850799D-02
  0.178700D+00  0.238400D-02
   s    10 1.00
  0.114200D+05 -0.115000D-03
  0.171200D+04 -0.895000D-03
  0.389300D+03 -0.462400D-02
  0.110000D+03 -0.185280D-01
  0.355700D+02 -0.573390D-01
  0.125400D+02 -0.132076D+00
  0.464400D+01 -0.172510D+00
  0.129300D+01  0.151814D+00
  0.511800D+00  0.599944D+00
  0.178700D+00  0.387462D+00
   s     1 1.00
  0.129300D+01  0.100000D+01
   s     1 1.00
  0.178700D+00  0.100000D+01
   p     5 1.00
  0.266300D+02  0.146700D-01
  0.594800D+01  0.917640D-01
  0.174200D+01  0.298683D+00
  0.555000D+00  0.498487D+00
  0.172500D+00  0.337023D+00
   p     1 1.00
  0.174200D+01  0.100000D+01
   p     1 1.00
  0.555000D+00  0.100000D+01
   d     1 1.00
  0.165400D+01  0.100000D+01
   d     1 1.00
  0.469000D+00  0.100000D+01
   f     1 1.00
  0.109300D+01  0.100000D+01
  
  2  0
   s    10 1.00
  0.823600D+04  0.531000D-03
  0.123500D+04  0.410800D-02
  0.280800D+03  0.210870D-01
  0.792700D+02  0.818530D-01
  0.255900D+02  0.234817D+00
  0.899700D+01  0.434401D+00
  0.331900D+01  0.346129D+00
  0.905900D+00  0.393780D-01
  0.364300D+00 -0.898300D-02
  0.128500D+00  0.238500D-02
   s    10 1.00
  0.823600D+04 -0.113000D-03
  0.123500D+04 -0.878000D-03
  0.280800D+03 -0.454000D-02
  0.792700D+02 -0.181330D-01
  0.255900D+02 -0.557600D-01
  0.899700D+01 -0.126895D+00
  0.331900D+01 -0.170352D+00
  0.905900D+00  0.140382D+00
  0.364300D+00  0.598684D+00
  0.128500D+00  0.395389D+00
   s     1 1.00
  0.905900D+00  0.100000D+01
   s     1 1.00
  0.364300D+00  0.100000D+01
   p     5 1.00
  0.187100D+02  0.140310D-01
  0.413300D+01  0.868660D-01
  0.120000D+01  0.290216D+00
  0.382700D+00  0.501008D+00
  0.120900D+00  0.343406D+00
   p     1 1.00
  0.382700D+00  0.100000D+01
   p     1 1.00
  0.120900D+00  0.100000D+01
   d     1 1.00
  0.109700D+01  0.100000D+01
   d     1 1.00
  0.318000D+00  0.100000D+01
   f     1 1.00
  0.761000D+00  0.100000D+01
  
  3  0
   s    10 1.00
  0.823600D+04  0.531000D-03
  0.123500D+04  0.410800D-02
  0.280800D+03  0.210870D-01
  0.792700D+02  0.818530D-01
  0.255900D+02  0.234817D+00
  0.899700D+01  0.434401D+00
  0.331900D+01  0.346129D+00
  0.905900D+00  0.393780D-01
  0.364300D+00 -0.898300D-02
  0.128500D+00  0.238500D-02
   s    10 1.00
  0.823600D+04 -0.113000D-03
  0.123500D+04 -0.878000D-03
  0.280800D+03 -0.454000D-02
  0.792700D+02 -0.181330D-01
  0.255900D+02 -0.557600D-01
  0.899700D+01 -0.126895D+00
  0.331900D+01 -0.170352D+00
  0.905900D+00  0.140382D+00
  0.364300D+00  0.598684D+00
  0.128500D+00  0.395389D+00
   s     1 1.00
  0.905900D+00  0.100000D+01
   s     1 1.00
  0.364300D+00  0.100000D+01
   p     5 1.00
  0.187100D+02  0.140310D-01
  0.413300D+01  0.868660D-01
  0.120000D+01  0.290216D+00
  0.382700D+00  0.501008D+00
  0.120900D+00  0.343406D+00
   p     1 1.00
  0.382700D+00  0.100000D+01
   p     1 1.00
  0.120900D+00  0.100000D+01
   d     1 1.00
  0.109700D+01  0.100000D+01
   d     1 1.00
  0.318000D+00  0.100000D+01
   f     1 1.00
  0.761000D+00  0.100000D+01
  
  4  0
   s    10 1.00
  0.823600D+04  0.531000D-03
  0.123500D+04  0.410800D-02
  0.280800D+03  0.210870D-01
  0.792700D+02  0.818530D-01
  0.255900D+02  0.234817D+00
  0.899700D+01  0.434401D+00
  0.331900D+01  0.346129D+00
  0.905900D+00  0.393780D-01
  0.364300D+00 -0.898300D-02
  0.128500D+00  0.238500D-02
   s    10 1.00
  0.823600D+04 -0.113000D-03
  0.123500D+04 -0.878000D-03
  0.280800D+03 -0.454000D-02
  0.792700D+02 -0.181330D-01
  0.255900D+02 -0.557600D-01
  0.899700D+01 -0.126895D+00
  0.331900D+01 -0.170352D+00
  0.905900D+00  0.140382D+00
  0.364300D+00  0.598684D+00
  0.128500D+00  0.395389D+00
   s     1 1.00
  0.905900D+00  0.100000D+01
   s     1 1.00
  0.364300D+00  0.100000D+01
   p     5 1.00
  0.187100D+02  0.140310D-01
  0.413300D+01  0.868660D-01
  0.120000D+01  0.290216D+00
  0.382700D+00  0.501008D+00
  0.120900D+00  0.343406D+00
   p     1 1.00
  0.382700D+00  0.100000D+01
   p     1 1.00
  0.120900D+00  0.100000D+01
   d     1 1.00
  0.109700D+01  0.100000D+01
   d     1 1.00
  0.318000D+00  0.100000D+01
   f     1 1.00
  0.761000D+00  0.100000D+01
  
  5  0
   s    10 1.00
  0.823600D+04  0.531000D-03
  0.123500D+04  0.410800D-02
  0.280800D+03  0.210870D-01
  0.792700D+02  0.818530D-01
  0.255900D+02  0.234817D+00
  0.899700D+01  0.434401D+00
  0.331900D+01  0.346129D+00
  0.905900D+00  0.393780D-01
  0.364300D+00 -0.898300D-02
  0.128500D+00  0.238500D-02
   s    10 1.00
  0.823600D+04 -0.113000D-03
  0.123500D+04 -0.878000D-03
  0.280800D+03 -0.454000D-02
  0.792700D+02 -0.181330D-01
  0.255900D+02 -0.557600D-01
  0.899700D+01 -0.126895D+00
  0.331900D+01 -0.170352D+00
  0.905900D+00  0.140382D+00
  0.364300D+00  0.598684D+00
  0.128500D+00  0.395389D+00
   s     1 1.00
  0.905900D+00  0.100000D+01
   s     1 1.00
  0.364300D+00  0.100000D+01
   p     5 1.00
  0.187100D+02  0.140310D-01
  0.413300D+01  0.868660D-01
  0.120000D+01  0.290216D+00
  0.382700D+00  0.501008D+00
  0.120900D+00  0.343406D+00
   p     1 1.00
  0.382700D+00  0.100000D+01
   p     1 1.00
  0.120900D+00  0.100000D+01
   d     1 1.00
  0.109700D+01  0.100000D+01
   d     1 1.00
  0.318000D+00  0.100000D+01
   f     1 1.00
  0.761000D+00  0.100000D+01
  
  6  0
   s    10 1.00
  0.823600D+04  0.531000D-03
  0.123500D+04  0.410800D-02
  0.280800D+03  0.210870D-01
  0.792700D+02  0.818530D-01
  0.255900D+02  0.234817D+00
  0.899700D+01  0.434401D+00
  0.331900D+01  0.346129D+00
  0.905900D+00  0.393780D-01
  0.364300D+00 -0.898300D-02
  0.128500D+00  0.238500D-02
   s    10 1.00
  0.823600D+04 -0.113000D-03
  0.123500D+04 -0.878000D-03
  0.280800D+03 -0.454000D-02
  0.792700D+02 -0.181330D-01
  0.255900D+02 -0.557600D-01
  0.899700D+01 -0.126895D+00
  0.331900D+01 -0.170352D+00
  0.905900D+00  0.140382D+00
  0.364300D+00  0.598684D+00
  0.128500D+00  0.395389D+00
   s     1 1.00
  0.905900D+00  0.100000D+01
   s     1 1.00
  0.364300D+00  0.100000D+01
   p     5 1.00
  0.187100D+02  0.140310D-01
  0.413300D+01  0.868660D-01
  0.120000D+01  0.290216D+00
  0.382700D+00  0.501008D+00
  0.120900D+00  0.343406D+00
   p     1 1.00
  0.382700D+00  0.100000D+01
   p     1 1.00
  0.120900D+00  0.100000D+01
   d     1 1.00
  0.109700D+01  0.100000D+01
   d     1 1.00
  0.318000D+00  0.100000D+01
   f     1 1.00
  0.761000D+00  0.100000D+01
  
  7  0
   s    10 1.00
  0.823600D+04  0.531000D-03
  0.123500D+04  0.410800D-02
  0.280800D+03  0.210870D-01
  0.792700D+02  0.818530D-01
  0.255900D+02  0.234817D+00
  0.899700D+01  0.434401D+00
  0.331900D+01  0.346129D+00
  0.905900D+00  0.393780D-01
  0.364300D+00 -0.898300D-02
  0.128500D+00  0.238500D-02
   s    10 1.00
  0.823600D+04 -0.113000D-03
  0.123500D+04 -0.878000D-03
  0.280800D+03 -0.454000D-02
  0.792700D+02 -0.181330D-01
  0.255900D+02 -0.557600D-01
  0.899700D+01 -0.126895D+00
  0.331900D+01 -0.170352D+00
  0.905900D+00  0.140382D+00
  0.364300D+00  0.598684D+00
  0.128500D+00  0.395389D+00
   s     1 1.00
  0.905900D+00  0.100000D+01
   s     1 1.00
  0.364300D+00  0.100000D+01
   p     5 1.00
  0.187100D+02  0.140310D-01
  0.413300D+01  0.868660D-01
  0.120000D+01  0.290216D+00
  0.382700D+00  0.501008D+00
  0.120900D+00  0.343406D+00
   p     1 1.00
  0.382700D+00  0.100000D+01
   p     1 1.00
  0.120900D+00  0.100000D+01
   d     1 1.00
  0.109700D+01  0.100000D+01
   d     1 1.00
  0.318000D+00  0.100000D+01
   f     1 1.00
  0.761000D+00  0.100000D+01
  
  8  0
   s     4 1.00
  0.130100D+02  0.196850D-01
  0.196200D+01  0.137977D+00
  0.444600D+00  0.478148D+00
  0.122000D+00  0.501240D+00
   s     1 1.00
  0.122000D+00  0.100000D+01
   p     1 1.00
  0.727000D+00  0.100000D+01
  
  9  0
   s     4 1.00
  0.130100D+02  0.196850D-01
  0.196200D+01  0.137977D+00
  0.444600D+00  0.478148D+00
  0.122000D+00  0.501240D+00
   s     1 1.00
  0.122000D+00  0.100000D+01
   p     1 1.00
  0.727000D+00  0.100000D+01
  
 10  0
   s     4 1.00
  0.130100D+02  0.196850D-01
  0.196200D+01  0.137977D+00
  0.444600D+00  0.478148D+00
  0.122000D+00  0.501240D+00
   s     1 1.00
  0.122000D+00  0.100000D+01
   p     1 1.00
  0.727000D+00  0.100000D+01
  
 11  0
   s     4 1.00
  0.130100D+02  0.196850D-01
  0.196200D+01  0.137977D+00
  0.444600D+00  0.478148D+00
  0.122000D+00  0.501240D+00
   s     1 1.00
  0.122000D+00  0.100000D+01
   p     1 1.00
  0.727000D+00  0.100000D+01
  
 12  0
   s     4 1.00
  0.130100D+02  0.196850D-01
  0.196200D+01  0.137977D+00
  0.444600D+00  0.478148D+00
  0.122000D+00  0.501240D+00
   s     1 1.00
  0.122000D+00  0.100000D+01
   p     1 1.00
  0.727000D+00  0.100000D+01
  
 13  0
   s     4 1.00
  0.130100D+02  0.196850D-01
  0.196200D+01  0.137977D+00
  0.444600D+00  0.478148D+00
  0.122000D+00  0.501240D+00
   s     1 1.00
  0.122000D+00  0.100000D+01
   p     1 1.00
  0.727000D+00  0.100000D+01
  
 14  0
   s     4 1.00
  0.130100D+02  0.196850D-01
  0.196200D+01  0.137977D+00
  0.444600D+00  0.478148D+00
  0.122000D+00  0.501240D+00
   s     1 1.00
  0.122000D+00  0.100000D+01
   p     1 1.00
  0.727000D+00  0.100000D+01
  
[MO]
 Sym= __1_A'_
 Ene=  0.000000000000000E+000
 Spin= Alpha
 Occup=    2.00000000000000     
                     1  4.178735863767166E-005
                     2  0.998070791705802     
                     3  9.271350783712475E-003
                     4  2.061399127462292E-003
                     5  1.526228757946947E-003
                     6  4.485087760387084E-003
                     7  1.355156302551027E-011
                     8  0.000000000000000E+000
                     9 -1.185894986564260E-004
                    10  9.044761429376326E-013
                    11  0.000000000000000E+000
                    12 -7.815978659764426E-005
                    13  1.589549979311453E-012
                    14  0.000000000000000E+000
                    15 -3.239028481340765E-005
                    16  0.000000000000000E+000
                    17  0.000000000000000E+000
                    18  2.923937949409510E-004
                    19  6.929597743189442E-013
                    20 -5.876879135797909E-004
                    21  0.000000000000000E+000
                    22  0.000000000000000E+000
                    23 -1.494703124381922E-004
                    24 -4.300198288641622E-013
                    25  0.000000000000000E+000
                    26 -1.888975831791764E-004
                    27 -1.212667535790483E-013
                    28  0.000000000000000E+000
                    29  0.000000000000000E+000
                    30 -9.376128599416583E-005
                    31  2.582939840069320E-013
                    32 -3.712478467845934E-004
                    33  2.713603670186861E-003
                    34  1.460269525905930E-004
                    35 -2.436147769633115E-004
                    36 -7.114267175401051E-003
                    37  1.069879745424796E-011
                    38  0.000000000000000E+000
                    39  3.886247500115374E-004
                    40 -4.640106213850667E-013
                    41  0.000000000000000E+000
                    42  4.409499151939203E-003
                    43  1.627033154272593E-012
                    44  0.000000000000000E+000
                    45 -2.947916563080388E-004
                    46  0.000000000000000E+000
                    47  0.000000000000000E+000
                    48  2.331923797917598E-004
                    49 -6.929174892979575E-013
                    50  3.773090888666014E-004
                    51  0.000000000000000E+000
                    52  0.000000000000000E+000
                    53  2.689294063511622E-004
                    54 -2.420294297384189E-013
                    55  0.000000000000000E+000
                    56 -1.302072084305635E-004
                    57  1.597284887480893E-013
                    58  0.000000000000000E+000
                    59  0.000000000000000E+000
                    60 -4.029024870029553E-005
                    61 -8.997003780970724E-014
                    62 -2.113691808557053E-004
                    63 -1.681880945260591E-003
                    64  6.058980136310662E-005
                    65  5.537825175908676E-004
                    66  1.015383228291660E-003
                    67  3.128179372614171E-012
                    68 -8.410209358346898E-004
                    69  6.246272812282343E-004
                    70 -3.663920633304897E-013
                    71 -3.605253447780303E-005
                    72 -1.310758589633988E-004
                    73 -1.657117451894422E-012
                    74 -5.630819540462449E-004
                    75 -8.273735938062479E-005
                    76 -8.436107736338793E-006
                    77 -1.049853578007058E-014
                    78  5.914475938580150E-005
                    79 -3.697675442511283E-014
                    80  3.980753472860899E-005
                    81  2.128303074567688E-004
                    82  2.945130944186049E-013
                    83 -6.375754780747232E-006
                    84  2.440636921543241E-013
                    85 -8.219654319301558E-006
                    86 -7.299418678149694E-005
                    87  2.346278743395314E-013
                    88 -3.149150020958508E-005
                    89 -8.065511675020219E-014
                    90 -6.160555661082663E-005
                    91  1.105416583931323E-013
                    92 -2.113691808557053E-004
                    93 -1.681880945260591E-003
                    94  6.058980136310662E-005
                    95  5.537825175908676E-004
                    96  1.015383228291660E-003
                    97  3.128179372614171E-012
                    98  8.410209358346898E-004
                    99  6.246272812282343E-004
                   100 -3.663920633304897E-013
                   101  3.605253447780303E-005
                   102 -1.310758589633988E-004
                   103 -1.657117451894422E-012
                   104  5.630819540462449E-004
                   105 -8.273735938062479E-005
                   106  8.436107736338793E-006
                   107  1.049853578007058E-014
                   108  5.914475938580150E-005
                   109 -3.697675442511283E-014
                   110  3.980753472860899E-005
                   111 -2.128303074567688E-004
                   112 -2.945130944186049E-013
                   113 -6.375754780747232E-006
                   114  2.440636921543241E-013
                   115  8.219654319301558E-006
                   116 -7.299418678149694E-005
                   117  2.346278743395314E-013
                   118  3.149150020958508E-005
                   119  8.065511675020219E-014
                   120 -6.160555661082663E-005
                   121  1.105416583931323E-013
                   122 -1.477581836966379E-004
                   123  7.083197338645886E-006
                   124  1.107996075210478E-004
                   125  1.287012912682603E-004
                   126 -7.999511257159232E-004
                   127  1.670818286704967E-012
                   128  4.134396172883199E-005
                   129  3.512122524597889E-004
                   130  1.473479297129023E-013
                   131  2.007208567830992E-005
                   132  7.083425307641635E-004
                   133  4.830916195487630E-013
                   134 -1.723612861106243E-004
                   135  7.381122404400591E-006
                   136  1.804755975484794E-006
                   137 -1.331497345708239E-013
                   138 -1.579808911541008E-005
                   139 -2.638893342711329E-013
                   140  8.361043175866523E-005
                   141  1.699315984982864E-004
                   142 -1.336993323688606E-013
                   143 -1.700230147120757E-004
                   144  7.600741638866582E-014
                   145 -2.028067430785046E-006
                   146 -1.638618314421806E-005
                   147  3.445820028124301E-014
                   148  3.334726247653534E-006
                   149 -9.127222524815898E-014
                   150 -3.699694023834199E-005
                   151 -3.060865805817369E-015
                   152 -1.477581836966379E-004
                   153  7.083197338645886E-006
                   154  1.107996075210478E-004
                   155  1.287012912682603E-004
                   156 -7.999511257159232E-004
                   157  1.670818286704967E-012
                   158 -4.134396172883199E-005
                   159  3.512122524597889E-004
                   160  1.473479297129023E-013
                   161 -2.007208567830992E-005
                   162  7.083425307641635E-004
                   163  4.830916195487630E-013
                   164  1.723612861106243E-004
                   165  7.381122404400591E-006
                   166 -1.804755975484794E-006
                   167  1.331497345708239E-013
                   168 -1.579808911541008E-005
                   169 -2.638893342711329E-013
                   170  8.361043175866523E-005
                   171 -1.699315984982864E-004
                   172  1.336993323688606E-013
                   173 -1.700230147120757E-004
                   174  7.600741638866582E-014
                   175  2.028067430785046E-006
                   176 -1.638618314421806E-005
                   177  3.445820028124301E-014
                   178 -3.334726247653534E-006
                   179  9.127222524815898E-014
                   180 -3.699694023834199E-005
                   181 -3.060865805817369E-015
                   182 -1.217626933793600E-004
                   183 -3.266396273015034E-004
                   184  3.219309607699331E-005
                   185  1.474111885688806E-004
                   186 -4.066558796103939E-005
                   187  1.049158402934382E-012
                   188  0.000000000000000E+000
                   189  1.797914830715515E-005
                   190  5.043268967401391E-013
                   191  0.000000000000000E+000
                   192  5.486779971865019E-005
                   193 -1.324410036023807E-012
                   194  0.000000000000000E+000
                   195 -1.752872583924886E-005
                   196  0.000000000000000E+000
                   197  0.000000000000000E+000
                   198  1.207731173488499E-005
                   199 -2.661698055171403E-015
                   200 -7.274360057377358E-005
                   201  0.000000000000000E+000
                   202  0.000000000000000E+000
                   203  2.621463180556260E-005
                   204 -7.591827737823716E-015
                   205  0.000000000000000E+000
                   206 -9.664955988542935E-006
                   207  3.366603613813303E-013
                   208  0.000000000000000E+000
                   209  0.000000000000000E+000
                   210 -7.264321343026171E-006
                   211 -1.934589119263740E-014
                   212  3.855734931989360E-003
                   213 -2.325768087117287E-003
                   214  3.805870561754595E-004
                   215  2.768177635148137E-013
                   216  4.677931683599870E-004
                   217  3.855734931989360E-003
                   218 -2.325768087117287E-003
                   219  3.805870561754595E-004
                   220  2.768177635148137E-013
                   221 -4.677931683599870E-004
                   222 -6.698934031407466E-004
                   223 -1.197645026103910E-004
                   224 -4.529077012330819E-005
                   225 -1.138854946562948E-013
                   226 -1.696807279027248E-005
                   227 -6.698934031407466E-004
                   228 -1.197645026103910E-004
                   229 -4.529077012330819E-005
                   230 -1.138854946562948E-013
                   231  1.696807279027248E-005
                   232 -2.339348793300189E-004
                   233 -4.093747553945684E-004
                   234  5.939787411179190E-006
                   235  9.005724554664828E-014
                   236 -5.675718329349795E-006
                   237 -2.339348793300189E-004
                   238 -4.093747553945684E-004
                   239  5.939787411179190E-006
                   240  9.005724554664828E-014
                   241  5.675718329349795E-006
                   242  6.909053849305672E-005
                   243 -1.310389786370576E-004
                   244  1.439010135861025E-005
                   245  1.355897839917167E-013
                   246  0.000000000000000E+000
 Sym= __2_A'_
 Ene=  0.000000000000000E+000
 Spin= Alpha
 Occup=    2.00000000000000     
                     1 -4.667571469277035E-005
                     2 -2.158597260994302E-004
                     3  2.293792901548016E-003
                     4  1.018626061860072E-004
                     5  1.263800363408589E-003
                     6  3.012064574757775E-003
                     7  2.178934439010058E-012
                     8  0.000000000000000E+000
                     9 -4.988162019455939E-005
                    10 -6.530613997544861E-013
                    11  0.000000000000000E+000
                    12 -5.489532342253544E-004
                    13  1.549298414029462E-012
                    14  0.000000000000000E+000
                    15 -7.796347361545691E-005
                    16  0.000000000000000E+000
                    17  0.000000000000000E+000
                    18  4.284628192709030E-006
                    19 -3.980788321582451E-013
                    20  4.347699710408022E-004
                    21  0.000000000000000E+000
                    22  0.000000000000000E+000
                    23 -7.883480288806434E-005
                    24  1.547076737127333E-012
                    25  0.000000000000000E+000
                    26  1.107528072896425E-004
                    27  4.994845846767566E-013
                    28  0.000000000000000E+000
                    29  0.000000000000000E+000
                    30  1.420288213683863E-004
                    31 -6.396467381876399E-014
                    32   1.00106049039398     
                    33  9.290502109146479E-003
                    34  2.631912986354958E-003
                    35 -7.762634279351658E-003
                    36 -4.151442149613524E-003
                    37  3.843999903660126E-012
                    38  0.000000000000000E+000
                    39  1.004271619605584E-003
                    40  2.638929874578408E-013
                    41  0.000000000000000E+000
                    42  4.449281005933816E-003
                    43  1.282840182368168E-012
                    44  0.000000000000000E+000
                    45  1.351615057794128E-004
                    46  0.000000000000000E+000
                    47  0.000000000000000E+000
                    48  6.285195100790688E-004
                    49  2.818752273635135E-013
                    50 -1.105221871382980E-003
                    51  0.000000000000000E+000
                    52  0.000000000000000E+000
                    53  3.475405838175794E-005
                    54  1.093196441193529E-012
                    55  0.000000000000000E+000
                    56  4.000613447588227E-004
                    57  7.434201825753155E-013
                    58  0.000000000000000E+000
                    59  0.000000000000000E+000
                    60  1.795609000021332E-004
                    61 -3.094128526801298E-013
                    62  7.187619025945798E-003
                    63 -2.058744070571115E-003
                    64 -2.763524130656996E-004
                    65  3.040408500026096E-003
                    66 -7.581212971270865E-006
                    67  1.680918610854073E-012
                    68  9.398194981126721E-005
                    69  1.687331121045990E-005
                    70 -2.039768100904879E-012
                    71  6.012904395997923E-004
                    72  9.601852915123074E-005
                    73 -1.268177602721635E-012
                    74 -2.098456574921193E-003
                    75 -1.757767232516843E-005
                    76  1.368175717819755E-005
                    77  3.003400168095712E-013
                    78 -2.749100893401586E-005
                    79  3.800519208338184E-014
                    80 -3.720030348744204E-004
                    81 -4.229335952744847E-004
                    82 -9.958272095001728E-013
                    83  6.669197136298192E-004
                    84 -7.113342262961572E-013
                    85  6.797351917292539E-005
                    86  1.455054888778267E-004
                    87 -1.887194315413626E-014
                    88  5.818500698183048E-006
                    89  5.196635810740067E-013
                    90 -1.988514867739402E-005
                    91 -9.131886146910091E-013
                    92  7.187619025945798E-003
                    93 -2.058744070571115E-003
                    94 -2.763524130656996E-004
                    95  3.040408500026096E-003
                    96 -7.581212971270865E-006
                    97  1.680918610854073E-012
                    98 -9.398194981126721E-005
                    99  1.687331121045990E-005
                   100 -2.039768100904879E-012
                   101 -6.012904395997923E-004
                   102  9.601852915123074E-005
                   103 -1.268177602721635E-012
                   104  2.098456574921193E-003
                   105 -1.757767232516843E-005
                   106 -1.368175717819755E-005
                   107 -3.003400168095712E-013
                   108 -2.749100893401586E-005
                   109  3.800519208338184E-014
                   110 -3.720030348744204E-004
                   111  4.229335952744847E-004
                   112  9.958272095001728E-013
                   113  6.669197136298192E-004
                   114 -7.113342262961572E-013
                   115 -6.797351917292539E-005
                   116  1.455054888778267E-004
                   117 -1.887194315413626E-014
                   118 -5.818500698183048E-006
                   119 -5.196635810740067E-013
                   120 -1.988514867739402E-005
                   121 -9.131886146910091E-013
                   122 -2.333232575460274E-004
                   123 -7.539902280551756E-004
                   124  2.243961529134259E-004
                   125 -1.095936146277236E-004
                   126 -2.559281743163579E-004
                   127  1.277683124358715E-012
                   128 -1.799270770045422E-005
                   129  5.352410520243613E-004
                   130  3.184404480423698E-013
                   131 -9.638859919659044E-006
                   132  7.514957750321765E-004
                   133  4.799853285609823E-013
                   134  3.288448022540472E-004
                   135 -5.096763244679288E-006
                   136  5.166906588672993E-005
                   137 -8.225063362933828E-014
                   138 -1.898513427586590E-005
                   139 -7.154416991646052E-013
                   140  1.558365158179392E-004
                   141 -2.182440910049348E-004
                   142  7.599949648925007E-013
                   143 -2.439048950972354E-004
                   144 -4.304270949488647E-013
                   145 -2.964228323157571E-005
                   146  3.230684272192874E-005
                   147 -1.981651358926401E-013
                   148 -2.925157391774886E-005
                   149  1.287240900483937E-013
                   150 -2.336799599401088E-005
                   151  9.754753412585935E-014
                   152 -2.333232575460274E-004
                   153 -7.539902280551756E-004
                   154  2.243961529134259E-004
                   155 -1.095936146277236E-004
                   156 -2.559281743163579E-004
                   157  1.277683124358715E-012
                   158  1.799270770045422E-005
                   159  5.352410520243613E-004
                   160  3.184404480423698E-013