[Molden Format]
[Atoms] AU
  N     1    7     0.0039820000   -0.0001300200   -4.3068599600        
  C     2    6     0.0022904300   -0.0008570400   -1.7712645500        
  C     3    6     0.0508956200   -2.3362320300   -0.4126997000        
  C     4    6    -0.0481282300    2.3337385000   -0.4114267500        
  C     5    6     0.0792894800   -2.2993382400    2.1659613900        
  C     6    6    -0.0799626000    2.2953659400    2.1671725800        
  C     7    6    -0.0012084600   -0.0023609000    3.4735422400        
  H     8    1    -0.7598582300   -1.4733812000   -5.3227712300        
  H     9    1     0.7691764700    1.4737032300   -5.3209061300        
  H    10    1     0.1238532400   -4.0680434000   -1.4498750800        
  H    11    1    -0.1197026200    4.0661443800   -1.4477052500        
  H    12    1     0.1668411500   -4.0391922200    3.1986356400        
  H    13    1    -0.1688927000    4.0346274700    3.2007266600        
  H    14    1    -0.0025607400   -0.0029421300    5.5006075100        
[5D]
[7F]
[GTO]
  1  0
   s    12 1.00
  0.114200D+05  0.172695D-04
  0.171200D+04  0.134411D-03
  0.389300D+03  0.694561D-03
  0.110000D+03  0.278531D-02
  0.355700D+02  0.863457D-02
  0.125400D+02  0.199805D-01
  0.464400D+01  0.262908D-01
  0.129300D+01 -0.243845D-01
  0.511800D+00 -0.924934D-01
  0.178700D+00 -0.339683D+00
  0.246240D-01  0.345111D+00
  0.112530D-01  0.752750D+00
   s    10 1.00
  0.114200D+05  0.523000D-03
  0.171200D+04  0.404500D-02
  0.389300D+03  0.207750D-01
  0.110000D+03  0.807269D-01
  0.355700D+02  0.233074D+00
  0.125400D+02  0.433501D+00
  0.464400D+01  0.347472D+00
  0.129300D+01  0.412620D-01
  0.511800D+00 -0.850799D-02
  0.178700D+00  0.238400D-02
   s    10 1.00
  0.114200D+05 -0.115000D-03
  0.171200D+04 -0.895000D-03
  0.389300D+03 -0.462400D-02
  0.110000D+03 -0.185280D-01
  0.355700D+02 -0.573390D-01
  0.125400D+02 -0.132076D+00
  0.464400D+01 -0.172510D+00
  0.129300D+01  0.151814D+00
  0.511800D+00  0.599944D+00
  0.178700D+00  0.387462D+00
   s     1 1.00
  0.129300D+01  0.100000D+01
   s     1 1.00
  0.178700D+00  0.100000D+01
   p     5 1.00
  0.266300D+02  0.146700D-01
  0.594800D+01  0.917640D-01
  0.174200D+01  0.298683D+00
  0.555000D+00  0.498487D+00
  0.172500D+00  0.337023D+00
   p     1 1.00
  0.174200D+01  0.100000D+01
   p     1 1.00
  0.555000D+00  0.100000D+01
   d     1 1.00
  0.165400D+01  0.100000D+01
   d     1 1.00
  0.469000D+00  0.100000D+01
   f     1 1.00
  0.109300D+01  0.100000D+01
  
  2  0
   s    10 1.00
  0.823600D+04  0.531000D-03
  0.123500D+04  0.410800D-02
  0.280800D+03  0.210870D-01
  0.792700D+02  0.818530D-01
  0.255900D+02  0.234817D+00
  0.899700D+01  0.434401D+00
  0.331900D+01  0.346129D+00
  0.905900D+00  0.393780D-01
  0.364300D+00 -0.898300D-02
  0.128500D+00  0.238500D-02
   s    10 1.00
  0.823600D+04 -0.113000D-03
  0.123500D+04 -0.878000D-03
  0.280800D+03 -0.454000D-02
  0.792700D+02 -0.181330D-01
  0.255900D+02 -0.557600D-01
  0.899700D+01 -0.126895D+00
  0.331900D+01 -0.170352D+00
  0.905900D+00  0.140382D+00
  0.364300D+00  0.598684D+00
  0.128500D+00  0.395389D+00
   s     1 1.00
  0.905900D+00  0.100000D+01
   s     1 1.00
  0.364300D+00  0.100000D+01
   p     5 1.00
  0.187100D+02  0.140310D-01
  0.413300D+01  0.868660D-01
  0.120000D+01  0.290216D+00
  0.382700D+00  0.501008D+00
  0.120900D+00  0.343406D+00
   p     1 1.00
  0.382700D+00  0.100000D+01
   p     1 1.00
  0.120900D+00  0.100000D+01
   d     1 1.00
  0.109700D+01  0.100000D+01
   d     1 1.00
  0.318000D+00  0.100000D+01
   f     1 1.00
  0.761000D+00  0.100000D+01
  
  3  0
   s    10 1.00
  0.823600D+04  0.531000D-03
  0.123500D+04  0.410800D-02
  0.280800D+03  0.210870D-01
  0.792700D+02  0.818530D-01
  0.255900D+02  0.234817D+00
  0.899700D+01  0.434401D+00
  0.331900D+01  0.346129D+00
  0.905900D+00  0.393780D-01
  0.364300D+00 -0.898300D-02
  0.128500D+00  0.238500D-02
   s    10 1.00
  0.823600D+04 -0.113000D-03
  0.123500D+04 -0.878000D-03
  0.280800D+03 -0.454000D-02
  0.792700D+02 -0.181330D-01
  0.255900D+02 -0.557600D-01
  0.899700D+01 -0.126895D+00
  0.331900D+01 -0.170352D+00
  0.905900D+00  0.140382D+00
  0.364300D+00  0.598684D+00
  0.128500D+00  0.395389D+00
   s     1 1.00
  0.905900D+00  0.100000D+01
   s     1 1.00
  0.364300D+00  0.100000D+01
   p     5 1.00
  0.187100D+02  0.140310D-01
  0.413300D+01  0.868660D-01
  0.120000D+01  0.290216D+00
  0.382700D+00  0.501008D+00
  0.120900D+00  0.343406D+00
   p     1 1.00
  0.382700D+00  0.100000D+01
   p     1 1.00
  0.120900D+00  0.100000D+01
   d     1 1.00
  0.109700D+01  0.100000D+01
   d     1 1.00
  0.318000D+00  0.100000D+01
   f     1 1.00
  0.761000D+00  0.100000D+01
  
  4  0
   s    10 1.00
  0.823600D+04  0.531000D-03
  0.123500D+04  0.410800D-02
  0.280800D+03  0.210870D-01
  0.792700D+02  0.818530D-01
  0.255900D+02  0.234817D+00
  0.899700D+01  0.434401D+00
  0.331900D+01  0.346129D+00
  0.905900D+00  0.393780D-01
  0.364300D+00 -0.898300D-02
  0.128500D+00  0.238500D-02
   s    10 1.00
  0.823600D+04 -0.113000D-03
  0.123500D+04 -0.878000D-03
  0.280800D+03 -0.454000D-02
  0.792700D+02 -0.181330D-01
  0.255900D+02 -0.557600D-01
  0.899700D+01 -0.126895D+00
  0.331900D+01 -0.170352D+00
  0.905900D+00  0.140382D+00
  0.364300D+00  0.598684D+00
  0.128500D+00  0.395389D+00
   s     1 1.00
  0.905900D+00  0.100000D+01
   s     1 1.00
  0.364300D+00  0.100000D+01
   p     5 1.00
  0.187100D+02  0.140310D-01
  0.413300D+01  0.868660D-01
  0.120000D+01  0.290216D+00
  0.382700D+00  0.501008D+00
  0.120900D+00  0.343406D+00
   p     1 1.00
  0.382700D+00  0.100000D+01
   p     1 1.00
  0.120900D+00  0.100000D+01
   d     1 1.00
  0.109700D+01  0.100000D+01
   d     1 1.00
  0.318000D+00  0.100000D+01
   f     1 1.00
  0.761000D+00  0.100000D+01
  
  5  0
   s    10 1.00
  0.823600D+04  0.531000D-03
  0.123500D+04  0.410800D-02
  0.280800D+03  0.210870D-01
  0.792700D+02  0.818530D-01
  0.255900D+02  0.234817D+00
  0.899700D+01  0.434401D+00
  0.331900D+01  0.346129D+00
  0.905900D+00  0.393780D-01
  0.364300D+00 -0.898300D-02
  0.128500D+00  0.238500D-02
   s    10 1.00
  0.823600D+04 -0.113000D-03
  0.123500D+04 -0.878000D-03
  0.280800D+03 -0.454000D-02
  0.792700D+02 -0.181330D-01
  0.255900D+02 -0.557600D-01
  0.899700D+01 -0.126895D+00
  0.331900D+01 -0.170352D+00
  0.905900D+00  0.140382D+00
  0.364300D+00  0.598684D+00
  0.128500D+00  0.395389D+00
   s     1 1.00
  0.905900D+00  0.100000D+01
   s     1 1.00
  0.364300D+00  0.100000D+01
   p     5 1.00
  0.187100D+02  0.140310D-01
  0.413300D+01  0.868660D-01
  0.120000D+01  0.290216D+00
  0.382700D+00  0.501008D+00
  0.120900D+00  0.343406D+00
   p     1 1.00
  0.382700D+00  0.100000D+01
   p     1 1.00
  0.120900D+00  0.100000D+01
   d     1 1.00
  0.109700D+01  0.100000D+01
   d     1 1.00
  0.318000D+00  0.100000D+01
   f     1 1.00
  0.761000D+00  0.100000D+01
  
  6  0
   s    10 1.00
  0.823600D+04  0.531000D-03
  0.123500D+04  0.410800D-02
  0.280800D+03  0.210870D-01
  0.792700D+02  0.818530D-01
  0.255900D+02  0.234817D+00
  0.899700D+01  0.434401D+00
  0.331900D+01  0.346129D+00
  0.905900D+00  0.393780D-01
  0.364300D+00 -0.898300D-02
  0.128500D+00  0.238500D-02
   s    10 1.00
  0.823600D+04 -0.113000D-03
  0.123500D+04 -0.878000D-03
  0.280800D+03 -0.454000D-02
  0.792700D+02 -0.181330D-01
  0.255900D+02 -0.557600D-01
  0.899700D+01 -0.126895D+00
  0.331900D+01 -0.170352D+00
  0.905900D+00  0.140382D+00
  0.364300D+00  0.598684D+00
  0.128500D+00  0.395389D+00
   s     1 1.00
  0.905900D+00  0.100000D+01
   s     1 1.00
  0.364300D+00  0.100000D+01
   p     5 1.00
  0.187100D+02  0.140310D-01
  0.413300D+01  0.868660D-01
  0.120000D+01  0.290216D+00
  0.382700D+00  0.501008D+00
  0.120900D+00  0.343406D+00
   p     1 1.00
  0.382700D+00  0.100000D+01
   p     1 1.00
  0.120900D+00  0.100000D+01
   d     1 1.00
  0.109700D+01  0.100000D+01
   d     1 1.00
  0.318000D+00  0.100000D+01
   f     1 1.00
  0.761000D+00  0.100000D+01
  
  7  0
   s    10 1.00
  0.823600D+04  0.531000D-03
  0.123500D+04  0.410800D-02
  0.280800D+03  0.210870D-01
  0.792700D+02  0.818530D-01
  0.255900D+02  0.234817D+00
  0.899700D+01  0.434401D+00
  0.331900D+01  0.346129D+00
  0.905900D+00  0.393780D-01
  0.364300D+00 -0.898300D-02
  0.128500D+00  0.238500D-02
   s    10 1.00
  0.823600D+04 -0.113000D-03
  0.123500D+04 -0.878000D-03
  0.280800D+03 -0.454000D-02
  0.792700D+02 -0.181330D-01
  0.255900D+02 -0.557600D-01
  0.899700D+01 -0.126895D+00
  0.331900D+01 -0.170352D+00
  0.905900D+00  0.140382D+00
  0.364300D+00  0.598684D+00
  0.128500D+00  0.395389D+00
   s     1 1.00
  0.905900D+00  0.100000D+01
   s     1 1.00
  0.364300D+00  0.100000D+01
   p     5 1.00
  0.187100D+02  0.140310D-01
  0.413300D+01  0.868660D-01
  0.120000D+01  0.290216D+00
  0.382700D+00  0.501008D+00
  0.120900D+00  0.343406D+00
   p     1 1.00
  0.382700D+00  0.100000D+01
   p     1 1.00
  0.120900D+00  0.100000D+01
   d     1 1.00
  0.109700D+01  0.100000D+01
   d     1 1.00
  0.318000D+00  0.100000D+01
   f     1 1.00
  0.761000D+00  0.100000D+01
  
  8  0
   s     4 1.00
  0.130100D+02  0.196850D-01
  0.196200D+01  0.137977D+00
  0.444600D+00  0.478148D+00
  0.122000D+00  0.501240D+00
   s     1 1.00
  0.122000D+00  0.100000D+01
   p     1 1.00
  0.727000D+00  0.100000D+01
  
  9  0
   s     4 1.00
  0.130100D+02  0.196850D-01
  0.196200D+01  0.137977D+00
  0.444600D+00  0.478148D+00
  0.122000D+00  0.501240D+00
   s     1 1.00
  0.122000D+00  0.100000D+01
   p     1 1.00
  0.727000D+00  0.100000D+01
  
 10  0
   s     4 1.00
  0.130100D+02  0.196850D-01
  0.196200D+01  0.137977D+00
  0.444600D+00  0.478148D+00
  0.122000D+00  0.501240D+00
   s     1 1.00
  0.122000D+00  0.100000D+01
   p     1 1.00
  0.727000D+00  0.100000D+01
  
 11  0
   s     4 1.00
  0.130100D+02  0.196850D-01
  0.196200D+01  0.137977D+00
  0.444600D+00  0.478148D+00
  0.122000D+00  0.501240D+00
   s     1 1.00
  0.122000D+00  0.100000D+01
   p     1 1.00
  0.727000D+00  0.100000D+01
  
 12  0
   s     4 1.00
  0.130100D+02  0.196850D-01
  0.196200D+01  0.137977D+00
  0.444600D+00  0.478148D+00
  0.122000D+00  0.501240D+00
   s     1 1.00
  0.122000D+00  0.100000D+01
   p     1 1.00
  0.727000D+00  0.100000D+01
  
 13  0
   s     4 1.00
  0.130100D+02  0.196850D-01
  0.196200D+01  0.137977D+00
  0.444600D+00  0.478148D+00
  0.122000D+00  0.501240D+00
   s     1 1.00
  0.122000D+00  0.100000D+01
   p     1 1.00
  0.727000D+00  0.100000D+01
  
 14  0
   s     4 1.00
  0.130100D+02  0.196850D-01
  0.196200D+01  0.137977D+00
  0.444600D+00  0.478148D+00
  0.122000D+00  0.501240D+00
   s     1 1.00
  0.122000D+00  0.100000D+01
   p     1 1.00
  0.727000D+00  0.100000D+01
  
[MO]
 Sym= __1_A__
 Ene=   1.00000000000000     
 Spin= Alpha
 Occup=    1.00000000000000     
                     1  4.422510556925142E-005
                     2  0.998029816882575     
                     3  9.101116901063284E-003
                     4  2.079550510319585E-003
                     5  1.624352104615238E-003
                     6 -2.933812077090858E-006
                     7 -1.272966725294914E-006
                     8  4.406006155907015E-003
                     9  9.961178967169888E-008
                    10  5.417493207047483E-008
                    11 -1.537142021846649E-004
                    12  1.551162152946175E-007
                    13  3.685718535397553E-008
                    14 -2.364830941885640E-004
                    15  2.427441419416942E-004
                    16 -3.087789500938551E-007
                    17 -5.180676671172922E-008
                    18 -7.370162335307074E-005
                    19  7.072040123185193E-005
                    20  1.349620252180183E-004
                    21 -4.413096655655667E-008
                    22 -4.615144651334976E-007
                    23  3.472274618252664E-004
                    24 -4.045728836114459E-004
                    25 -1.850533789005025E-004
                    26 -2.523688187986639E-007
                    27 -2.073212995731665E-007
                    28  6.679105829584031E-005
                    29 -4.497053740862480E-005
                    30  7.090335307627372E-008
                    31  1.210381982243216E-008
                    32 -3.121433119346922E-004
                    33  2.737647722377881E-003
                    34  1.448151048905326E-004
                    35 -3.448053637004392E-004
                    36  4.584291935402721E-006
                    37  1.990528917536026E-006
                    38 -6.878759037043006E-003
                    39 -1.551658419129098E-007
                    40 -1.197409279554585E-007
                    41  2.412386177802306E-004
                    42 -2.892500730601214E-006
                    43 -1.198801348219755E-006
                    44  4.327122739821912E-003
                    45  3.462913439534957E-004
                    46 -3.202478725712805E-007
                    47 -2.063437917813252E-007
                    48  1.248357704029399E-004
                    49 -1.228857703276786E-005
                    50  2.101018664699133E-004
                    51 -4.165380702950791E-007
                    52 -9.152953020917365E-008
                    53 -3.032218749546470E-004
                    54  1.006471037906423E-004
                    55 -1.020460491179022E-004
                    56 -1.038499079315596E-007
                    57 -1.252209490932933E-007
                    58  6.741989903433220E-005
                    59 -1.946892746015487E-005
                    60  6.181637869277062E-008
                    61 -1.149520070701727E-008
                    62 -2.075771616543996E-004
                    63 -1.657028365862504E-003
                    64  3.879286319966270E-005
                    65  6.423296607154245E-004
                    66 -2.239285202901135E-005
                    67 -8.387132229385042E-004
                    68  1.012150516130594E-003
                    69  4.950480523838626E-005
                    70  5.325953689891730E-006
                    71  5.028772535711623E-004
                    72  3.073320722442756E-005
                    73 -6.330517017685485E-004
                    74 -1.791391705877720E-004
                    75  8.957263955123237E-005
                    76  2.472516183671831E-006
                    77 -1.038814469859210E-005
                    78  3.696505726124208E-005
                    79 -3.493335466729280E-007
                    80  1.018725752118524E-005
                    81 -3.232148926133992E-005
                    82  1.473385599142458E-004
                    83 -1.374473869071043E-005
                    84  2.936798659046367E-005
                    85 -8.928550298483299E-005
                    86  3.863397339129935E-006
                    87 -2.211816619886947E-005
                    88  2.136801825050482E-005
                    89 -6.755484449138147E-006
                    90  1.847397288042776E-006
                    91  1.584685873266088E-005
                    92 -2.075409018605246E-004
                    93 -1.656882714214616E-003
                    94  3.895801526863372E-005
                    95  6.417871882909765E-004
                    96  2.104000436721474E-005
                    97  8.381518232085276E-004
                    98  1.012768705472723E-003
                    99 -5.016719443885055E-005
                   100 -5.753953243908760E-006
                   101  5.021800440158116E-004
                   102 -3.047081278434465E-005
                   103  6.325805150159874E-004
                   104 -1.786565743745928E-004
                   105  8.954444830492353E-005
                   106 -2.629981450347509E-006
                   107  1.029444381351604E-005
                   108  3.697637750635704E-005
                   109 -3.617814848513616E-007
                   110  9.675313633371090E-006
                   111  3.230424431880687E-005
                   112 -1.474085992527714E-004
                   113 -1.396130169925629E-005
                   114  2.954332339068782E-005
                   115 -8.923600623722260E-005
                   116 -4.115282316379439E-006
                   117  2.196105944424092E-005
                   118  2.138391185389312E-005
                   119 -6.826089409613550E-006
                   120 -1.808037054718232E-006
                   121 -1.584996038445753E-005
                   122 -1.514836234947567E-004
                   123 -1.420063374208515E-005
                   124  1.048646850474880E-004
                   125  1.538374626519007E-004
                   126 -2.960327663133927E-005
                   127  4.130932583921075E-005
                   128 -7.789396698910090E-004
                   129  4.584542294169761E-007
                   130  2.407717920599993E-005
                   131  3.205968969434505E-004
                   132  1.693902769079670E-005
                   133 -1.300721483826110E-004
                   134  6.834235423674031E-004
                   135 -1.453172246722459E-005
                   136  1.954740163191696E-006
                   137  2.468831711270311E-006
                   138  4.953684860899840E-007
                   139  1.542354647007901E-006
                   140 -1.782985273282828E-004
                   141 -1.698452355209849E-005
                   142  1.495653397893528E-004
                   143  1.790733488754110E-005
                   144 -8.748214219386538E-006
                   145 -3.618965791256951E-005
                   146  2.848013757585785E-007
                   147 -1.781809643869955E-007
                   148 -8.793266795557796E-006
                   149 -1.418922447320277E-006
                   150 -7.392797337017965E-007
                   151 -3.147230732034964E-006
                   152 -1.519585432469240E-004
                   153 -1.587919885418905E-005
                   154  1.043847075139967E-004
                   155  1.568608303113331E-004
                   156  3.063431650120500E-005
                   157 -4.080592530319964E-005
                   158 -7.788923103940183E-004
                   159 -8.584516014377407E-007
                   160 -2.461952811594644E-005
                   161  3.202283772526928E-004
                   162 -1.787603204804051E-005
                   163  1.302266440422063E-004
                   164  6.836462414872553E-004
                   165 -1.448465654337721E-005
                   166 -1.921038482219750E-006
                   167 -2.460562295451347E-006
                   168  4.447131680085068E-007
                   169  1.542354363725800E-006
                   170 -1.782741874082451E-004
                   171  1.741741352248592E-005
                   172 -1.496678863982580E-004
                   173  1.775278998341889E-005
                   174 -8.558328104047549E-006
                   175 -3.610144556245083E-005
                   176 -4.203167455176943E-007
                   177  1.397507583878569E-007
                   178 -8.842714960457189E-006
                   179 -1.416941394894430E-006
                   180  7.259984246909360E-007
                   181  3.165250145361843E-006
                   182 -1.269275869684103E-004
                   183 -3.414192878403199E-004
                   184  3.072646354286955E-005
                   185  1.758303186095701E-004
                   186  2.279633816326557E-008
                   187  9.961805441981504E-008
                   188 -4.406242759441228E-005
                   189  9.121153645149254E-009
                   190 -4.401732389352816E-007
                   191  1.686249215006239E-005
                   192 -8.143922713930086E-009
                   193 -4.552255829813701E-008
                   194  1.779752034839692E-005
                   195  1.857277049468657E-005
                   196 -1.683798201259129E-008
                   197  1.299863377131796E-008
                   198  8.235931336704153E-006
                   199  7.582841573269149E-007
                   200  5.375446604082536E-005
                   201 -4.251224083849428E-008
                   202  1.691912053686519E-007
                   203  4.202571576106074E-005
                   204 -5.888275235936269E-006
                   205 -1.166289360862271E-005
                   206 -1.422808694461505E-008
                   207 -1.561498546401708E-008
                   208  3.321265433081512E-006
                   209  1.864107381768440E-006
                   210  4.891088881990091E-009
                   211  2.460215195434815E-008
                   212  3.888540312455579E-003
                   213 -2.333551223062431E-003
                   214  2.310876064880155E-004
                   215  4.095868330373623E-004
                   216  3.686411199028405E-004
                   217  3.888514807154362E-003
                   218 -2.333540654262939E-003
                   219 -2.315782421794131E-004
                   220 -4.097966619252191E-004
                   221  3.680988866571553E-004
                   222 -6.346446271812107E-004
                   223 -1.854774163276383E-004
                   224  2.260010950123094E-006
                   225 -2.192063412079193E-005
                   226 -4.275091243418194E-005
                   227 -6.347132060359579E-004
                   228 -1.851046299799985E-004
                   229 -2.202892791009892E-006
                   230  2.192706031393090E-005
                   231 -4.276784198034079E-005
                   232 -2.307658896566399E-004
                   233 -3.745178770935592E-004
                   234 -2.336363667495222E-006
                   235 -7.173959548519116E-006
                   236  4.235371713445386E-006
                   237 -2.308055356008534E-004
                   238 -3.746782860648783E-004
                   239  2.328052763745254E-006
                   240  7.217595409486964E-006
                   241  4.289856652035301E-006
                   242  6.923816877129818E-005
                   243 -1.031533044187712E-004
                   244 -9.889721381905925E-009
                   245 -2.556451285627589E-008
                   246  1.496069048678376E-005
 Sym= __2_A__
 Ene=   2.00000000000000     
 Spin= Alpha
 Occup=    1.00000000000000     
                     1 -3.815374882646495E-005
                     2 -1.825014073911226E-004
                     3  2.205136019847929E-003
                     4  9.041640714796440E-005
                     5  1.258624805952356E-003
                     6 -1.869568734366974E-006
                     7 -7.988814326783710E-007
                     8  2.797742343127200E-003
                     9  4.476000889893793E-008
                    10  1.550275611707316E-008
                    11 -6.504727534832068E-005
                    12  2.724950457883380E-007
                    13  1.216332334508576E-007
                    14 -4.035741121492877E-004
                    15  4.457787301042886E-005
                    16 -2.669810270666054E-008
                    17 -5.318666352349834E-008
                    18  4.887997937435866E-005
                    19 -2.618489378226944E-005
                    20 -2.363754880490696E-004
                    21  1.609965818356079E-007
                    22  2.759589174747659E-007
                    23 -2.295193368284826E-004
                    24  1.395094104510359E-004
                    25  1.879547306001643E-004
                    26  2.750878119748282E-007
                    27  1.086562174025380E-007
                    28 -1.824648818010202E-005
                    29 -3.005690758875208E-005
                    30 -4.239493461950858E-009
                    31  3.172156397709465E-008
                    32   1.00105528383770     
                    33  9.166600661655252E-003
                    34  2.619186476206610E-003
                    35 -7.779654644255973E-003
                    36  2.621753579951948E-006
                    37  1.121609972482097E-006
                    38 -3.929962319622618E-003
                    39 -7.286050264517395E-007
                    40 -3.113907836349577E-007
                    41  1.091496058216766E-003
                    42 -2.850789657554298E-006
                    43 -1.295824599351465E-006
                    44  4.279579064807531E-003
                    45  4.342478330452732E-004
                    46 -7.753591469933940E-007
                    47 -8.731770481590323E-008
                    48 -4.174681907856326E-004
                    49  1.698627756262210E-005
                    50  4.939016380432698E-004
                    51  9.573290498345600E-009
                    52 -5.014259593630345E-007
                    53  8.776997860520206E-004
                    54 -2.177277557638350E-005
                    55  3.657130367135671E-004
                    56  3.948756407701543E-007
                    57  3.588783239247492E-007
                    58 -1.971750171681218E-004
                    59  1.278459653150993E-005
                    60 -1.654559730215808E-007
                    61  6.047352497860830E-008
                    62  8.014917221524222E-003
                    63 -1.999954446164863E-003
                    64 -2.719622447299231E-004
                    65  2.986879919069745E-003
                    66  7.111056205401240E-006
                    67  1.242160810288454E-004
                    68 -3.915188517195459E-005
                    69 -3.614768612013027E-005
                    70  5.706748114987294E-004
                    71  5.966428655875050E-005
                    72  6.821886679866025E-005
                    73 -2.020393923577450E-003
                    74  9.719797282749342E-005
                    75 -1.683479825149777E-005
                    76  1.526572153200120E-006
                    77  1.594303015191813E-005
                    78  2.925525393549936E-005
                    79  2.202590911293626E-006
                    80  7.580914422185227E-004
                    81  2.694436414022951E-005
                    82 -4.184354808553477E-004
                    83 -1.730831106843570E-005
                    84 -1.756991780873350E-005
                    85  6.821051440130992E-005
                    86 -8.734800504143598E-007
                    87  4.046284057327194E-005
                    88 -1.234485911989878E-004
                    89  1.178286228936773E-006
                    90  2.210685337252219E-006
                    91  4.967702762166269E-005
                    92  8.014891190468583E-003
                    93 -2.000037789818305E-003
                    94 -2.720052381124080E-004
                    95  2.987079462460280E-003
                    96 -7.058043272832719E-006
                    97 -1.241945014699042E-004
                    98 -3.925609453308562E-005
                    99  3.606659503712696E-005
                   100 -5.707076879554275E-004
                   101  5.951744774338463E-005
                   102 -6.835576356796862E-005
                   103  2.020465771703007E-003
                   104  9.810917592262413E-005
                   105 -1.684016899295734E-005
                   106 -1.447574401770898E-006
                   107 -1.594621406669633E-005
                   108  2.924655312105570E-005
                   109  2.224788427898287E-006
                   110  7.585059786737434E-004
                   111 -2.873210557445226E-005
                   112  4.177160939722867E-004
                   113 -1.701219470537404E-005
                   114 -1.811096464763995E-005
                   115  6.825075915648829E-005
                   116  8.365364160922196E-007
                   117 -4.024993435261892E-005
                   118 -1.235157860831416E-004
                   119  1.180014831825799E-006
                   120 -2.412991632825377E-006
                   121 -4.959079086455741E-005
                   122 -2.201766506851947E-004
                   123 -7.494765020582036E-004
                   124  2.251629558129374E-004
                   125 -1.282716588274689E-004
                   126 -5.285903943061682E-006
                   127 -2.338972327002577E-005
                   128 -2.410504377541235E-004
                   129  1.078251142204445E-005
                   130  1.156533720996057E-006
                   131  5.446892971045532E-004
                   132 -1.234306213398993E-005
                   133  3.123475413730176E-004
                   134  7.301644260666584E-004
                   135 -1.607584940977607E-005
                   136 -2.746498998186534E-006
                   137  5.073393855124202E-005
                   138  1.436838177127805E-005
                   139  1.890388807431719E-006
                   140 -2.961216056501164E-004
                   141  3.550201697799915E-006
                   142 -2.248016694592006E-004
                   143 -1.733095746114672E-005
                   144 -8.109017203178526E-006
                   145 -1.198246425249743E-006
                   146  3.044378755143182E-006
                   147 -3.720960911061449E-005
                   148 -3.764272888691702E-005
                   149 -2.876325013699955E-006
                   150  8.504613753318663E-007
                   151 -6.261229136084120E-006
                   152 -2.198899140658123E-004
                   153 -7.485245017328950E-004
                   154  2.252280046865357E-004
                   155 -1.292866211954897E-004
                   156  5.608254739268606E-006
                   157  2.351834517476023E-005
                   158 -2.410334425408415E-004
                   159 -1.151269812558623E-005
                   160 -1.422735589360357E-006