[Molden Format]
[Atoms] AU
  N     1    7    -4.5063519500   -0.0295326700   -0.3894262400        
  C     2    6    -1.7522533800   -0.0555591400   -0.1707948200        
  C     3    6    -0.3532156500    0.2166010200   -2.3747485800        
  C     4    6    -0.4788622400   -0.2726636800    2.1262171000        
  C     5    6     2.2636958200    0.2524148200   -2.2885539200        
  C     6    6     2.1331584100   -0.2195779500    2.2043275900        
  C     7    6     3.5107938900    0.0398850900   -0.0042903200        
  H     8    1    -5.0897336200   -1.8216425900    0.1990695800        
  H     9    1    -5.1046976800    1.0164794600    1.1272935100        
  H    10    1    -1.3322010600    0.4076012000   -4.1366529000        
  H    11    1    -1.5377870000   -0.4882612300    3.8430115400        
  H    12    1     3.3245617500    0.4612986600   -4.0047258200        
  H    13    1     3.0915366000   -0.3875401400    3.9851011400        
  H    14    1     5.5384274100    0.0767618100    0.0590707000        
[5D]
[7F]
[GTO]
  1  0
   s    12 1.00
  0.114200D+05  0.172695D-04
  0.171200D+04  0.134411D-03
  0.389300D+03  0.694561D-03
  0.110000D+03  0.278531D-02
  0.355700D+02  0.863457D-02
  0.125400D+02  0.199805D-01
  0.464400D+01  0.262908D-01
  0.129300D+01 -0.243845D-01
  0.511800D+00 -0.924934D-01
  0.178700D+00 -0.339683D+00
  0.246240D-01  0.345111D+00
  0.112530D-01  0.752750D+00
   s    10 1.00
  0.114200D+05  0.523000D-03
  0.171200D+04  0.404500D-02
  0.389300D+03  0.207750D-01
  0.110000D+03  0.807269D-01
  0.355700D+02  0.233074D+00
  0.125400D+02  0.433501D+00
  0.464400D+01  0.347472D+00
  0.129300D+01  0.412620D-01
  0.511800D+00 -0.850799D-02
  0.178700D+00  0.238400D-02
   s    10 1.00
  0.114200D+05 -0.115000D-03
  0.171200D+04 -0.895000D-03
  0.389300D+03 -0.462400D-02
  0.110000D+03 -0.185280D-01
  0.355700D+02 -0.573390D-01
  0.125400D+02 -0.132076D+00
  0.464400D+01 -0.172510D+00
  0.129300D+01  0.151814D+00
  0.511800D+00  0.599944D+00
  0.178700D+00  0.387462D+00
   s     1 1.00
  0.129300D+01  0.100000D+01
   s     1 1.00
  0.178700D+00  0.100000D+01
   p     5 1.00
  0.266300D+02  0.146700D-01
  0.594800D+01  0.917640D-01
  0.174200D+01  0.298683D+00
  0.555000D+00  0.498487D+00
  0.172500D+00  0.337023D+00
   p     1 1.00
  0.174200D+01  0.100000D+01
   p     1 1.00
  0.555000D+00  0.100000D+01
   d     1 1.00
  0.165400D+01  0.100000D+01
   d     1 1.00
  0.469000D+00  0.100000D+01
   f     1 1.00
  0.109300D+01  0.100000D+01
  
  2  0
   s    10 1.00
  0.823600D+04  0.531000D-03
  0.123500D+04  0.410800D-02
  0.280800D+03  0.210870D-01
  0.792700D+02  0.818530D-01
  0.255900D+02  0.234817D+00
  0.899700D+01  0.434401D+00
  0.331900D+01  0.346129D+00
  0.905900D+00  0.393780D-01
  0.364300D+00 -0.898300D-02
  0.128500D+00  0.238500D-02
   s    10 1.00
  0.823600D+04 -0.113000D-03
  0.123500D+04 -0.878000D-03
  0.280800D+03 -0.454000D-02
  0.792700D+02 -0.181330D-01
  0.255900D+02 -0.557600D-01
  0.899700D+01 -0.126895D+00
  0.331900D+01 -0.170352D+00
  0.905900D+00  0.140382D+00
  0.364300D+00  0.598684D+00
  0.128500D+00  0.395389D+00
   s     1 1.00
  0.905900D+00  0.100000D+01
   s     1 1.00
  0.364300D+00  0.100000D+01
   p     5 1.00
  0.187100D+02  0.140310D-01
  0.413300D+01  0.868660D-01
  0.120000D+01  0.290216D+00
  0.382700D+00  0.501008D+00
  0.120900D+00  0.343406D+00
   p     1 1.00
  0.382700D+00  0.100000D+01
   p     1 1.00
  0.120900D+00  0.100000D+01
   d     1 1.00
  0.109700D+01  0.100000D+01
   d     1 1.00
  0.318000D+00  0.100000D+01
   f     1 1.00
  0.761000D+00  0.100000D+01
  
  3  0
   s    10 1.00
  0.823600D+04  0.531000D-03
  0.123500D+04  0.410800D-02
  0.280800D+03  0.210870D-01
  0.792700D+02  0.818530D-01
  0.255900D+02  0.234817D+00
  0.899700D+01  0.434401D+00
  0.331900D+01  0.346129D+00
  0.905900D+00  0.393780D-01
  0.364300D+00 -0.898300D-02
  0.128500D+00  0.238500D-02
   s    10 1.00
  0.823600D+04 -0.113000D-03
  0.123500D+04 -0.878000D-03
  0.280800D+03 -0.454000D-02
  0.792700D+02 -0.181330D-01
  0.255900D+02 -0.557600D-01
  0.899700D+01 -0.126895D+00
  0.331900D+01 -0.170352D+00
  0.905900D+00  0.140382D+00
  0.364300D+00  0.598684D+00
  0.128500D+00  0.395389D+00
   s     1 1.00
  0.905900D+00  0.100000D+01
   s     1 1.00
  0.364300D+00  0.100000D+01
   p     5 1.00
  0.187100D+02  0.140310D-01
  0.413300D+01  0.868660D-01
  0.120000D+01  0.290216D+00
  0.382700D+00  0.501008D+00
  0.120900D+00  0.343406D+00
   p     1 1.00
  0.382700D+00  0.100000D+01
   p     1 1.00
  0.120900D+00  0.100000D+01
   d     1 1.00
  0.109700D+01  0.100000D+01
   d     1 1.00
  0.318000D+00  0.100000D+01
   f     1 1.00
  0.761000D+00  0.100000D+01
  
  4  0
   s    10 1.00
  0.823600D+04  0.531000D-03
  0.123500D+04  0.410800D-02
  0.280800D+03  0.210870D-01
  0.792700D+02  0.818530D-01
  0.255900D+02  0.234817D+00
  0.899700D+01  0.434401D+00
  0.331900D+01  0.346129D+00
  0.905900D+00  0.393780D-01
  0.364300D+00 -0.898300D-02
  0.128500D+00  0.238500D-02
   s    10 1.00
  0.823600D+04 -0.113000D-03
  0.123500D+04 -0.878000D-03
  0.280800D+03 -0.454000D-02
  0.792700D+02 -0.181330D-01
  0.255900D+02 -0.557600D-01
  0.899700D+01 -0.126895D+00
  0.331900D+01 -0.170352D+00
  0.905900D+00  0.140382D+00
  0.364300D+00  0.598684D+00
  0.128500D+00  0.395389D+00
   s     1 1.00
  0.905900D+00  0.100000D+01
   s     1 1.00
  0.364300D+00  0.100000D+01
   p     5 1.00
  0.187100D+02  0.140310D-01
  0.413300D+01  0.868660D-01
  0.120000D+01  0.290216D+00
  0.382700D+00  0.501008D+00
  0.120900D+00  0.343406D+00
   p     1 1.00
  0.382700D+00  0.100000D+01
   p     1 1.00
  0.120900D+00  0.100000D+01
   d     1 1.00
  0.109700D+01  0.100000D+01
   d     1 1.00
  0.318000D+00  0.100000D+01
   f     1 1.00
  0.761000D+00  0.100000D+01
  
  5  0
   s    10 1.00
  0.823600D+04  0.531000D-03
  0.123500D+04  0.410800D-02
  0.280800D+03  0.210870D-01
  0.792700D+02  0.818530D-01
  0.255900D+02  0.234817D+00
  0.899700D+01  0.434401D+00
  0.331900D+01  0.346129D+00
  0.905900D+00  0.393780D-01
  0.364300D+00 -0.898300D-02
  0.128500D+00  0.238500D-02
   s    10 1.00
  0.823600D+04 -0.113000D-03
  0.123500D+04 -0.878000D-03
  0.280800D+03 -0.454000D-02
  0.792700D+02 -0.181330D-01
  0.255900D+02 -0.557600D-01
  0.899700D+01 -0.126895D+00
  0.331900D+01 -0.170352D+00
  0.905900D+00  0.140382D+00
  0.364300D+00  0.598684D+00
  0.128500D+00  0.395389D+00
   s     1 1.00
  0.905900D+00  0.100000D+01
   s     1 1.00
  0.364300D+00  0.100000D+01
   p     5 1.00
  0.187100D+02  0.140310D-01
  0.413300D+01  0.868660D-01
  0.120000D+01  0.290216D+00
  0.382700D+00  0.501008D+00
  0.120900D+00  0.343406D+00
   p     1 1.00
  0.382700D+00  0.100000D+01
   p     1 1.00
  0.120900D+00  0.100000D+01
   d     1 1.00
  0.109700D+01  0.100000D+01
   d     1 1.00
  0.318000D+00  0.100000D+01
   f     1 1.00
  0.761000D+00  0.100000D+01
  
  6  0
   s    10 1.00
  0.823600D+04  0.531000D-03
  0.123500D+04  0.410800D-02
  0.280800D+03  0.210870D-01
  0.792700D+02  0.818530D-01
  0.255900D+02  0.234817D+00
  0.899700D+01  0.434401D+00
  0.331900D+01  0.346129D+00
  0.905900D+00  0.393780D-01
  0.364300D+00 -0.898300D-02
  0.128500D+00  0.238500D-02
   s    10 1.00
  0.823600D+04 -0.113000D-03
  0.123500D+04 -0.878000D-03
  0.280800D+03 -0.454000D-02
  0.792700D+02 -0.181330D-01
  0.255900D+02 -0.557600D-01
  0.899700D+01 -0.126895D+00
  0.331900D+01 -0.170352D+00
  0.905900D+00  0.140382D+00
  0.364300D+00  0.598684D+00
  0.128500D+00  0.395389D+00
   s     1 1.00
  0.905900D+00  0.100000D+01
   s     1 1.00
  0.364300D+00  0.100000D+01
   p     5 1.00
  0.187100D+02  0.140310D-01
  0.413300D+01  0.868660D-01
  0.120000D+01  0.290216D+00
  0.382700D+00  0.501008D+00
  0.120900D+00  0.343406D+00
   p     1 1.00
  0.382700D+00  0.100000D+01
   p     1 1.00
  0.120900D+00  0.100000D+01
   d     1 1.00
  0.109700D+01  0.100000D+01
   d     1 1.00
  0.318000D+00  0.100000D+01
   f     1 1.00
  0.761000D+00  0.100000D+01
  
  7  0
   s    10 1.00
  0.823600D+04  0.531000D-03
  0.123500D+04  0.410800D-02
  0.280800D+03  0.210870D-01
  0.792700D+02  0.818530D-01
  0.255900D+02  0.234817D+00
  0.899700D+01  0.434401D+00
  0.331900D+01  0.346129D+00
  0.905900D+00  0.393780D-01
  0.364300D+00 -0.898300D-02
  0.128500D+00  0.238500D-02
   s    10 1.00
  0.823600D+04 -0.113000D-03
  0.123500D+04 -0.878000D-03
  0.280800D+03 -0.454000D-02
  0.792700D+02 -0.181330D-01
  0.255900D+02 -0.557600D-01
  0.899700D+01 -0.126895D+00
  0.331900D+01 -0.170352D+00
  0.905900D+00  0.140382D+00
  0.364300D+00  0.598684D+00
  0.128500D+00  0.395389D+00
   s     1 1.00
  0.905900D+00  0.100000D+01
   s     1 1.00
  0.364300D+00  0.100000D+01
   p     5 1.00
  0.187100D+02  0.140310D-01
  0.413300D+01  0.868660D-01
  0.120000D+01  0.290216D+00
  0.382700D+00  0.501008D+00
  0.120900D+00  0.343406D+00
   p     1 1.00
  0.382700D+00  0.100000D+01
   p     1 1.00
  0.120900D+00  0.100000D+01
   d     1 1.00
  0.109700D+01  0.100000D+01
   d     1 1.00
  0.318000D+00  0.100000D+01
   f     1 1.00
  0.761000D+00  0.100000D+01
  
  8  0
   s     4 1.00
  0.130100D+02  0.196850D-01
  0.196200D+01  0.137977D+00
  0.444600D+00  0.478148D+00
  0.122000D+00  0.501240D+00
   s     1 1.00
  0.122000D+00  0.100000D+01
   p     1 1.00
  0.727000D+00  0.100000D+01
  
  9  0
   s     4 1.00
  0.130100D+02  0.196850D-01
  0.196200D+01  0.137977D+00
  0.444600D+00  0.478148D+00
  0.122000D+00  0.501240D+00
   s     1 1.00
  0.122000D+00  0.100000D+01
   p     1 1.00
  0.727000D+00  0.100000D+01
  
 10  0
   s     4 1.00
  0.130100D+02  0.196850D-01
  0.196200D+01  0.137977D+00
  0.444600D+00  0.478148D+00
  0.122000D+00  0.501240D+00
   s     1 1.00
  0.122000D+00  0.100000D+01
   p     1 1.00
  0.727000D+00  0.100000D+01
  
 11  0
   s     4 1.00
  0.130100D+02  0.196850D-01
  0.196200D+01  0.137977D+00
  0.444600D+00  0.478148D+00
  0.122000D+00  0.501240D+00
   s     1 1.00
  0.122000D+00  0.100000D+01
   p     1 1.00
  0.727000D+00  0.100000D+01
  
 12  0
   s     4 1.00
  0.130100D+02  0.196850D-01
  0.196200D+01  0.137977D+00
  0.444600D+00  0.478148D+00
  0.122000D+00  0.501240D+00
   s     1 1.00
  0.122000D+00  0.100000D+01
   p     1 1.00
  0.727000D+00  0.100000D+01
  
 13  0
   s     4 1.00
  0.130100D+02  0.196850D-01
  0.196200D+01  0.137977D+00
  0.444600D+00  0.478148D+00
  0.122000D+00  0.501240D+00
   s     1 1.00
  0.122000D+00  0.100000D+01
   p     1 1.00
  0.727000D+00  0.100000D+01
  
 14  0
   s     4 1.00
  0.130100D+02  0.196850D-01
  0.196200D+01  0.137977D+00
  0.444600D+00  0.478148D+00
  0.122000D+00  0.501240D+00
   s     1 1.00
  0.122000D+00  0.100000D+01
   p     1 1.00
  0.727000D+00  0.100000D+01
  
[MO]
 Sym= __1_A__
 Ene=   1.00000000000000     
 Spin= Alpha
 Occup=    1.00000000000000     
                     1 -1.519842723769108E-004
                     2  0.998099007182109     
                     3 -1.785484393363687E-002
                     4  2.038124175668577E-003
                     5  6.576866809571422E-003
                     6  9.813924891157134E-003
                     7 -3.769180488638824E-003
                     8  1.591072354654038E-002
                     9 -1.231876566103644E-003
                    10  3.409859376139620E-004
                    11 -1.406419222596374E-003
                    12 -2.995416042951376E-003
                    13  1.381789292433574E-003
                    14 -4.892659488467510E-003
                    15  1.112235432415461E-004
                    16 -1.366772575530846E-005
                    17 -3.468907502563173E-005
                    18  4.002765320796514E-005
                    19 -2.476622793476913E-005
                    20  3.123013780201170E-004
                    21  6.739987883522685E-004
                    22 -2.175860494265707E-004
                    23  1.998838046718294E-004
                    24 -2.127773929614075E-004
                    25  3.305125655625696E-005
                    26 -7.764667536715940E-005
                    27  3.082878702979430E-005
                    28  1.746766702238266E-005
                    29  1.400015814942481E-005
                    30 -2.457117501717718E-005
                    31 -1.446019617859361E-005
                    32 -3.260947147894253E-004
                    33  1.655156627424352E-004
                    34  2.595454971879565E-004
                    35  8.026049218717648E-005
                    36 -7.295747502717114E-004
                    37 -1.201668968252937E-003
                    38 -7.632604653055482E-004
                    39 -1.891349146628675E-004
                    40 -9.036018030568290E-005
                    41  7.600635174429636E-004
                    42  3.976042641566748E-003
                    43  3.216709367402664E-004
                    44 -2.407968708012703E-003
                    45 -5.695151809058212E-005
                    46 -1.480737702326142E-004
                    47  9.666858070130471E-006
                    48  5.539925991055708E-005
                    49  3.319436013642773E-005
                    50  3.150364628562161E-004
                    51  4.211539837636148E-004
                    52 -4.039322079468032E-005
                    53 -1.151802633536176E-004
                    54 -1.066870570527038E-004
                    55  8.204881590792446E-005
                    56 -1.509659040231805E-005
                    57 -4.767048733901974E-006
                    58  8.821839676557705E-005
                    59 -6.581540438630972E-006
                    60 -3.901774217688017E-005
                    61 -1.893980648168072E-005
                    62 -8.084874824961249E-004
                    63 -1.457787728847108E-003
                    64 -1.135278851012163E-004
                    65  2.942213855651349E-003
                    66 -1.552515721024196E-003
                    67 -6.139258322110811E-004
                    68  2.310010667221880E-004
                    69  7.431567649992014E-004
                    70 -5.345825289270321E-005
                    71  6.372451540843228E-004
                    72  1.320943187617165E-003
                    73  3.235604561047911E-004
                    74 -1.840351153834488E-003
                    75  2.211459891226195E-005
                    76 -5.850705714308140E-005
                    77 -3.021043534179820E-005
                    78  4.897465121953992E-005
                    79  2.002539914447436E-005
                    80  3.284583203351824E-004
                    81 -3.135445817203243E-005
                    82 -8.013642480254841E-005
                    83 -5.526346243494588E-005
                    84  2.389187422098073E-005
                    85 -2.477001960147737E-005
                    86 -1.534129570461434E-004
                    87 -1.276693096231386E-005
                    88  2.529140990435718E-006
                    89  2.542259341548953E-005
                    90 -7.493578562713245E-005
                    91 -3.797390198973289E-006
                    92  5.206865944828964E-005
                    93 -4.962361663987264E-004
                    94  3.206189929273111E-004
                    95 -1.295705008355829E-003
                    96  2.950691247718555E-004
                    97 -5.025378793130988E-004
                    98  5.200627910850934E-004
                    99  8.661094373326459E-005
                   100 -2.756850282389012E-005
                   101  3.941468280215101E-004
                   102 -1.885114995817424E-003
                   103  5.275949213193247E-005
                   104 -3.901641716490284E-005
                   105 -5.314364763494244E-005
                   106 -7.736441628684147E-006
                   107  2.243121373701737E-005
                   108  3.996221638224044E-005
                   109  1.242696142198808E-005
                   110 -5.734357971441914E-005
                   111  9.326701512595381E-006
                   112  4.594061870931164E-005
                   113 -2.021030419379042E-004
                   114 -2.485339134797974E-006
                   115 -3.410193156165022E-005
                   116  4.080968122631404E-005
                   117 -5.904384365348951E-006
                   118 -3.094908467798690E-006
                   119 -1.149134166539140E-005
                   120  5.542515305751602E-006
                   121 -6.203212183418780E-006
                   122 -3.089297937531644E-004
                   123 -1.376203889897899E-003
                   124  1.324255240536375E-004
                   125  7.857089739912545E-004
                   126  5.819687214496014E-004
                   127 -1.104767676020138E-006
                   128 -1.050839428515963E-004
                   129  5.042786391348935E-004
                   130 -2.202623225405321E-005
                   131  3.022261925345335E-004
                   132  1.844462716974457E-003
                   133 -5.684383231884112E-006
                   134  6.089301121456712E-004
                   135  5.107200925535106E-005
                   136 -1.288095076916634E-005
                   137 -3.457597824277186E-006
                   138 -3.842199782151166E-005
                   139  1.086089562493291E-005
                   140  2.322964763001983E-004
                   141  2.514325535108361E-004
                   142  5.874947007998484E-006
                   143 -3.536979595560548E-004
                   144 -1.798013269310870E-005
                   145 -2.458105988458602E-005
                   146 -3.182000902117155E-005
                   147 -5.232692740480077E-006
                   148  6.625475842166776E-009
                   149 -2.660731806388101E-006
                   150 -8.715485453933877E-005
                   151  2.161479461790764E-006
                   152 -1.348447755805429E-004
                   153 -2.329617606023937E-004
                   154 -7.741973335627986E-005
                   155  7.082028363040048E-004
                   156 -7.947404753811409E-005
                   157  3.979341300632137E-005
                   158  5.731629090198942E-006
                   159 -3.193774489853390E-004
                   160 -1.802975966961331E-005
                   161  1.311477129153862E-004
                   162 -5.875032092639144E-004
                   163 -8.406879208929374E-005
                   164  9.164242194431215E-004
                   165 -1.817727012409543E-005
                   166  6.458183633504211E-007
                   167 -1.699065318208464E-006
                   168  2.661919233018468E-005
                   169  1.038684301021476E-005
                   170 -8.069106602603549E-005
                   171  1.899627430085644E-005
                   172  1.425647056818626E-005
                   173  4.443950080768676E-006
                   174  8.087566400942945E-006
                   175 -6.355328678671779E-006
                   176 -5.404438584676761E-006
                   177 -4.522484984077139E-007
                   178 -4.914428612948098E-006
                   179 -1.474489156842425E-006
                   180  6.189870374212968E-006
                   181 -2.355080634660926E-009
                   182 -1.399580143202496E-004
                   183 -3.655932096004510E-004
                   184  3.480720244803859E-005
                   185  2.173916184007127E-004
                   186 -1.013665853933061E-004
                   187  2.083325447987068E-004
                   188 -7.908589200462722E-005
                   189  1.104650661515848E-004
                   190 -3.635971537880051E-005
                   191  3.968989841904989E-004
                   192 -4.664956384659546E-004
                   193 -1.246537143553468E-004
                   194  1.445444454507586E-003
                   195  8.044370379681851E-006
                   196 -2.064812020437941E-006
                   197 -8.690845836194760E-008
                   198 -4.854383428137698E-006
                   199  1.920745079022248E-007
                   200 -9.322138517497622E-005
                   201 -2.761303922915043E-004
                   202  1.273902362388493E-005
                   203  3.396536215407102E-005
                   204  2.697014732212330E-005
                   205  2.190137711460490E-007
                   206  6.397300157470696E-006
                   207 -1.355741540135133E-006
                   208  1.770791227210775E-005
                   209 -1.963095434133732E-006
                   210 -4.264799426202226E-006
                   211 -1.570001597734508E-006
                   212 -2.048686741711781E-003
                   213  6.235884747387504E-004
                   214  1.132604029311038E-004
                   215 -7.334369689458885E-006
                   216  8.738863586020117E-005
                   217 -3.750840293147249E-004
                   218  9.533065029582370E-005
                   219  1.394059991041084E-004
                   220 -4.993263040881809E-005
                   221  6.073279723496333E-006
                   222  3.969426587958425E-004
                   223 -9.424865254252285E-004
                   224 -6.485627100590469E-005
                   225 -1.902180377689457E-005
                   226  8.225117562403494E-005
                   227 -3.342086513745801E-005
                   228 -2.280753382535028E-004
                   229 -3.642558450343002E-005
                   230  2.025060178579928E-006
                   231 -7.321869019331934E-005
                   232  4.058384214885835E-004
                   233 -3.593467220272636E-004
                   234  4.013192656412034E-007
                   235 -1.648775268177511E-006
                   236  2.439564284164627E-005
                   237 -5.149976151251459E-005
                   238 -4.265106200146282E-004
                   239 -3.895144316888971E-006
                   240  1.201208133781034E-006
                   241  1.013861794477408E-005
                   242 -1.458557126533339E-004
                   243  1.779827254446061E-004
                   244  3.113783469526095E-005
                   245  6.025846778730601E-006
                   246 -1.767082940192092E-008
 Sym= __2_A__
 Ene=   2.00000000000000     
 Spin= Alpha
 Occup=    1.00000000000000     
                     1 -1.897251121169395E-005
                     2 -5.057624422627049E-005
                     3 -1.660075449769857E-004
                     4 -1.442398905233636E-005
                     5  1.137064245540150E-003
                     6  1.318700361535801E-003
                     7 -2.484510402963486E-004
                     8  6.157594532837542E-004
                     9 -1.570654183117088E-004
                    10  7.092162030018614E-005
                    11 -1.103462166827703E-004
                    12  1.872565621841487E-004
                    13  9.555065147868365E-005
                    14 -1.183590511262173E-004
                    15 -4.679968269826681E-005
                    16  2.589789629759379E-005
                    17  2.100969347030056E-007
                    18  4.845980220844640E-005
                    19 -2.082148432706951E-006
                    20  6.066497401695904E-005
                    21 -6.158778194346521E-005
                    22 -1.123216388030363E-005
                    23  1.026953162434586E-004
                    24 -2.133837117529692E-005
                    25 -3.675296975353320E-005
                    26  1.262108500749663E-004
                    27  1.627060241243589E-005
                    28 -5.663110148492310E-005
                    29 -1.152611174309857E-005
                    30  1.166670561831646E-004
                    31  1.419779547937270E-005
                    32   1.00083796018310     
                    33  8.426557596268366E-003
                    34  2.860609038334711E-003
                    35 -8.432341549167222E-003
                    36 -1.261073206486632E-003
                    37 -1.537846183835275E-005
                    38  1.321739092557245E-004
                    39  8.537237874809124E-004
                    40  9.669100154290425E-006
                    41 -4.201268153086965E-004
                    42  2.456194293633886E-003
                    43 -5.228390200692622E-005
                    44  3.104744716379564E-004
                    45  3.210991570956453E-004
                    46 -8.220482293742332E-006
                    47 -8.792147625663107E-005
                    48  3.120536835524242E-004
                    49  1.133419565178109E-005
                    50 -9.818508740169997E-004
                    51 -3.603922479712434E-004
                    52  1.942737746451977E-004
                    53 -1.466955283169630E-004
                    54  3.494023395031572E-005
                    55 -2.146593450144545E-005
                    56  2.540846411778609E-004
                    57 -4.190452581478325E-007
                    58 -3.199695208213988E-005
                    59 -3.520557551830739E-005
                    60  6.506527756741822E-005
                    61  3.602465052447295E-006
                    62  1.618441324604506E-002
                    63 -1.413105612276315E-003
                    64 -2.876061546890571E-004
                    65  2.752159892220062E-003
                    66 -3.712271369646959E-004
                    67 -7.838929487106768E-005
                    68  4.580213655168262E-004
                    69  3.939412721198581E-005
                    70 -3.498000681337358E-005
                    71  2.840073640013765E-004
                    72  2.084399892260941E-004
                    73  2.243083334467609E-004
                    74 -1.737066017111329E-003
                    75  1.313182399447002E-005
                    76  2.549192335033298E-005
                    77  1.106987317171708E-006
                    78 -4.904809765701376E-005
                    79 -3.298615641380829E-006
                    80 -5.392891574312096E-004
                    81 -3.759512371704179E-004
                    82  1.364366658980585E-005
                    83  8.085619510257192E-004
                    84  6.889848388717155E-005
                    85  3.404816559858774E-005
                    86  1.053758709805349E-004
                    87  1.751436693091046E-005
                    88 -2.974310368159988E-005
                    89 -2.399330078029644E-005
                    90 -2.625541514455083E-005
                    91  5.556792166863948E-006
                    92  1.875219516488928E-002
                    93 -1.678069155923547E-003
                    94 -3.399899298857921E-004
                    95  3.373839780155306E-003
                    96 -2.833715100956771E-004
                    97  1.385103168187366E-005
                    98 -3.652237362090553E-004
                    99 -1.208815558794080E-004
                   100  8.321335913506854E-005
                   101 -7.899458954199811E-004
                   102  3.699103278038576E-004
                   103 -1.333527667864002E-004
                   104  1.520549411608943E-003
                   105  1.132182401812412E-005
                   106 -2.409311886105687E-006
                   107  2.021129968103537E-006
                   108 -2.401784243407798E-005
                   109  1.122895113247659E-007
                   110 -1.617114917018112E-004
                   111  5.126127629079470E-004
                   112 -3.292283519933999E-005
                   113  6.120232008718714E-004
                   114 -3.570350448294083E-005
                   115 -4.498790545129856E-005
                   116  8.387351259744478E-005
                   117 -1.179089677364375E-005
                   118  1.813014831235348E-005
                   119 -1.487711431432664E-005
                   120 -2.876188729212592E-005
                   121 -8.117823240980570E-007
                   122 -5.803213671512116E-005
                   123 -7.546786654940090E-004
                   124  2.449312142949536E-004
                   125 -4.107226385821674E-004
                   126 -4.730486472368332E-005
                   127  7.092316105414311E-006
                   128 -5.688057706922248E-005
                   129  6.243539678707994E-004
                   130  5.286054493185986E-006
                   131  5.807641311881619E-005
                   132  2.995678366459011E-004
                   133 -4.489433125858269E-005
                   134  4.017596257855924E-004
                   135  2.234219694377699E-006
                   136  3.497739305716386E-005
                   137  4.777115907814513E-006
                   138 -4.032997414655860E-005
                   139 -5.236221968585941E-006
                   140  1.871128260573935E-004
                   141 -2.944522744480509E-004
                   142 -1.669920450660037E-005
                   143 -2.225196484209336E-004
                   144  2.580511183849578E-005
                   145 -7.817974902263528E-006
                   146  1.123931545306875E-005
                   147 -1.726868978622213E-006
                   148 -9.939615269122468E-007
                   149 -4.134285306279459E-006
                   150 -1.963005847855465E-005
                   151  1.471569311944566E-006
                   152  2.217976101918792E-005
                   153 -7.916625292410168E-004
                   154  2.284038112129979E-004
                   155 -1.328301112275124E-004
                   156 -7.477308523834961E-005
                   157 -4.988023470608389E-006
                   158  4.096361283484946E-005
                   159  4.765825941440710E-004
                   160  1.544619465313474E-005