[Molden Format]
[Atoms] AU
  N     1    7    -0.0002181400   -0.0006562800   -4.2911052200        
  C     2    6    -0.0001515400   -0.0005481500   -1.7771535500        
  C     3    6     0.0067812600   -2.3393310200   -0.4110833300        
  C     4    6    -0.0070119700    2.3383522600   -0.4112841700        
  C     5    6     0.0110118500   -2.3001961800    2.1640074000        
  C     6    6    -0.0111060800    2.2994389500    2.1638101400        
  C     7    6    -0.0000123600   -0.0003222000    3.4754079600        
  H     8    1    -0.1133042300   -1.6497960300   -5.3105745500        
  H     9    1     0.1128139400    1.6483957600   -5.3107224200        
  H    10    1     0.0179638000   -4.0749124400   -1.4447225300        
  H    11    1    -0.0182492900    4.0738447400   -1.4450720800        
  H    12    1     0.0238365600   -4.0422884200    3.1965701800        
  H    13    1    -0.0238760600    4.0416200100    3.1962237300        
  H    14    1     0.0000413500   -0.0002350400    5.5019282500        
[5D]
[7F]
[GTO]
  1  0
   s    12 1.00
  0.114200D+05  0.172695D-04
  0.171200D+04  0.134411D-03
  0.389300D+03  0.694561D-03
  0.110000D+03  0.278531D-02
  0.355700D+02  0.863457D-02
  0.125400D+02  0.199805D-01
  0.464400D+01  0.262908D-01
  0.129300D+01 -0.243845D-01
  0.511800D+00 -0.924934D-01
  0.178700D+00 -0.339683D+00
  0.246240D-01  0.345111D+00
  0.112530D-01  0.752750D+00
   s    10 1.00
  0.114200D+05  0.523000D-03
  0.171200D+04  0.404500D-02
  0.389300D+03  0.207750D-01
  0.110000D+03  0.807269D-01
  0.355700D+02  0.233074D+00
  0.125400D+02  0.433501D+00
  0.464400D+01  0.347472D+00
  0.129300D+01  0.412620D-01
  0.511800D+00 -0.850799D-02
  0.178700D+00  0.238400D-02
   s    10 1.00
  0.114200D+05 -0.115000D-03
  0.171200D+04 -0.895000D-03
  0.389300D+03 -0.462400D-02
  0.110000D+03 -0.185280D-01
  0.355700D+02 -0.573390D-01
  0.125400D+02 -0.132076D+00
  0.464400D+01 -0.172510D+00
  0.129300D+01  0.151814D+00
  0.511800D+00  0.599944D+00
  0.178700D+00  0.387462D+00
   s     1 1.00
  0.129300D+01  0.100000D+01
   s     1 1.00
  0.178700D+00  0.100000D+01
   p     5 1.00
  0.266300D+02  0.146700D-01
  0.594800D+01  0.917640D-01
  0.174200D+01  0.298683D+00
  0.555000D+00  0.498487D+00
  0.172500D+00  0.337023D+00
   p     1 1.00
  0.174200D+01  0.100000D+01
   p     1 1.00
  0.555000D+00  0.100000D+01
   d     1 1.00
  0.165400D+01  0.100000D+01
   d     1 1.00
  0.469000D+00  0.100000D+01
   f     1 1.00
  0.109300D+01  0.100000D+01
  
  2  0
   s    10 1.00
  0.823600D+04  0.531000D-03
  0.123500D+04  0.410800D-02
  0.280800D+03  0.210870D-01
  0.792700D+02  0.818530D-01
  0.255900D+02  0.234817D+00
  0.899700D+01  0.434401D+00
  0.331900D+01  0.346129D+00
  0.905900D+00  0.393780D-01
  0.364300D+00 -0.898300D-02
  0.128500D+00  0.238500D-02
   s    10 1.00
  0.823600D+04 -0.113000D-03
  0.123500D+04 -0.878000D-03
  0.280800D+03 -0.454000D-02
  0.792700D+02 -0.181330D-01
  0.255900D+02 -0.557600D-01
  0.899700D+01 -0.126895D+00
  0.331900D+01 -0.170352D+00
  0.905900D+00  0.140382D+00
  0.364300D+00  0.598684D+00
  0.128500D+00  0.395389D+00
   s     1 1.00
  0.905900D+00  0.100000D+01
   s     1 1.00
  0.364300D+00  0.100000D+01
   p     5 1.00
  0.187100D+02  0.140310D-01
  0.413300D+01  0.868660D-01
  0.120000D+01  0.290216D+00
  0.382700D+00  0.501008D+00
  0.120900D+00  0.343406D+00
   p     1 1.00
  0.382700D+00  0.100000D+01
   p     1 1.00
  0.120900D+00  0.100000D+01
   d     1 1.00
  0.109700D+01  0.100000D+01
   d     1 1.00
  0.318000D+00  0.100000D+01
   f     1 1.00
  0.761000D+00  0.100000D+01
  
  3  0
   s    10 1.00
  0.823600D+04  0.531000D-03
  0.123500D+04  0.410800D-02
  0.280800D+03  0.210870D-01
  0.792700D+02  0.818530D-01
  0.255900D+02  0.234817D+00
  0.899700D+01  0.434401D+00
  0.331900D+01  0.346129D+00
  0.905900D+00  0.393780D-01
  0.364300D+00 -0.898300D-02
  0.128500D+00  0.238500D-02
   s    10 1.00
  0.823600D+04 -0.113000D-03
  0.123500D+04 -0.878000D-03
  0.280800D+03 -0.454000D-02
  0.792700D+02 -0.181330D-01
  0.255900D+02 -0.557600D-01
  0.899700D+01 -0.126895D+00
  0.331900D+01 -0.170352D+00
  0.905900D+00  0.140382D+00
  0.364300D+00  0.598684D+00
  0.128500D+00  0.395389D+00
   s     1 1.00
  0.905900D+00  0.100000D+01
   s     1 1.00
  0.364300D+00  0.100000D+01
   p     5 1.00
  0.187100D+02  0.140310D-01
  0.413300D+01  0.868660D-01
  0.120000D+01  0.290216D+00
  0.382700D+00  0.501008D+00
  0.120900D+00  0.343406D+00
   p     1 1.00
  0.382700D+00  0.100000D+01
   p     1 1.00
  0.120900D+00  0.100000D+01
   d     1 1.00
  0.109700D+01  0.100000D+01
   d     1 1.00
  0.318000D+00  0.100000D+01
   f     1 1.00
  0.761000D+00  0.100000D+01
  
  4  0
   s    10 1.00
  0.823600D+04  0.531000D-03
  0.123500D+04  0.410800D-02
  0.280800D+03  0.210870D-01
  0.792700D+02  0.818530D-01
  0.255900D+02  0.234817D+00
  0.899700D+01  0.434401D+00
  0.331900D+01  0.346129D+00
  0.905900D+00  0.393780D-01
  0.364300D+00 -0.898300D-02
  0.128500D+00  0.238500D-02
   s    10 1.00
  0.823600D+04 -0.113000D-03
  0.123500D+04 -0.878000D-03
  0.280800D+03 -0.454000D-02
  0.792700D+02 -0.181330D-01
  0.255900D+02 -0.557600D-01
  0.899700D+01 -0.126895D+00
  0.331900D+01 -0.170352D+00
  0.905900D+00  0.140382D+00
  0.364300D+00  0.598684D+00
  0.128500D+00  0.395389D+00
   s     1 1.00
  0.905900D+00  0.100000D+01
   s     1 1.00
  0.364300D+00  0.100000D+01
   p     5 1.00
  0.187100D+02  0.140310D-01
  0.413300D+01  0.868660D-01
  0.120000D+01  0.290216D+00
  0.382700D+00  0.501008D+00
  0.120900D+00  0.343406D+00
   p     1 1.00
  0.382700D+00  0.100000D+01
   p     1 1.00
  0.120900D+00  0.100000D+01
   d     1 1.00
  0.109700D+01  0.100000D+01
   d     1 1.00
  0.318000D+00  0.100000D+01
   f     1 1.00
  0.761000D+00  0.100000D+01
  
  5  0
   s    10 1.00
  0.823600D+04  0.531000D-03
  0.123500D+04  0.410800D-02
  0.280800D+03  0.210870D-01
  0.792700D+02  0.818530D-01
  0.255900D+02  0.234817D+00
  0.899700D+01  0.434401D+00
  0.331900D+01  0.346129D+00
  0.905900D+00  0.393780D-01
  0.364300D+00 -0.898300D-02
  0.128500D+00  0.238500D-02
   s    10 1.00
  0.823600D+04 -0.113000D-03
  0.123500D+04 -0.878000D-03
  0.280800D+03 -0.454000D-02
  0.792700D+02 -0.181330D-01
  0.255900D+02 -0.557600D-01
  0.899700D+01 -0.126895D+00
  0.331900D+01 -0.170352D+00
  0.905900D+00  0.140382D+00
  0.364300D+00  0.598684D+00
  0.128500D+00  0.395389D+00
   s     1 1.00
  0.905900D+00  0.100000D+01
   s     1 1.00
  0.364300D+00  0.100000D+01
   p     5 1.00
  0.187100D+02  0.140310D-01
  0.413300D+01  0.868660D-01
  0.120000D+01  0.290216D+00
  0.382700D+00  0.501008D+00
  0.120900D+00  0.343406D+00
   p     1 1.00
  0.382700D+00  0.100000D+01
   p     1 1.00
  0.120900D+00  0.100000D+01
   d     1 1.00
  0.109700D+01  0.100000D+01
   d     1 1.00
  0.318000D+00  0.100000D+01
   f     1 1.00
  0.761000D+00  0.100000D+01
  
  6  0
   s    10 1.00
  0.823600D+04  0.531000D-03
  0.123500D+04  0.410800D-02
  0.280800D+03  0.210870D-01
  0.792700D+02  0.818530D-01
  0.255900D+02  0.234817D+00
  0.899700D+01  0.434401D+00
  0.331900D+01  0.346129D+00
  0.905900D+00  0.393780D-01
  0.364300D+00 -0.898300D-02
  0.128500D+00  0.238500D-02
   s    10 1.00
  0.823600D+04 -0.113000D-03
  0.123500D+04 -0.878000D-03
  0.280800D+03 -0.454000D-02
  0.792700D+02 -0.181330D-01
  0.255900D+02 -0.557600D-01
  0.899700D+01 -0.126895D+00
  0.331900D+01 -0.170352D+00
  0.905900D+00  0.140382D+00
  0.364300D+00  0.598684D+00
  0.128500D+00  0.395389D+00
   s     1 1.00
  0.905900D+00  0.100000D+01
   s     1 1.00
  0.364300D+00  0.100000D+01
   p     5 1.00
  0.187100D+02  0.140310D-01
  0.413300D+01  0.868660D-01
  0.120000D+01  0.290216D+00
  0.382700D+00  0.501008D+00
  0.120900D+00  0.343406D+00
   p     1 1.00
  0.382700D+00  0.100000D+01
   p     1 1.00
  0.120900D+00  0.100000D+01
   d     1 1.00
  0.109700D+01  0.100000D+01
   d     1 1.00
  0.318000D+00  0.100000D+01
   f     1 1.00
  0.761000D+00  0.100000D+01
  
  7  0
   s    10 1.00
  0.823600D+04  0.531000D-03
  0.123500D+04  0.410800D-02
  0.280800D+03  0.210870D-01
  0.792700D+02  0.818530D-01
  0.255900D+02  0.234817D+00
  0.899700D+01  0.434401D+00
  0.331900D+01  0.346129D+00
  0.905900D+00  0.393780D-01
  0.364300D+00 -0.898300D-02
  0.128500D+00  0.238500D-02
   s    10 1.00
  0.823600D+04 -0.113000D-03
  0.123500D+04 -0.878000D-03
  0.280800D+03 -0.454000D-02
  0.792700D+02 -0.181330D-01
  0.255900D+02 -0.557600D-01
  0.899700D+01 -0.126895D+00
  0.331900D+01 -0.170352D+00
  0.905900D+00  0.140382D+00
  0.364300D+00  0.598684D+00
  0.128500D+00  0.395389D+00
   s     1 1.00
  0.905900D+00  0.100000D+01
   s     1 1.00
  0.364300D+00  0.100000D+01
   p     5 1.00
  0.187100D+02  0.140310D-01
  0.413300D+01  0.868660D-01
  0.120000D+01  0.290216D+00
  0.382700D+00  0.501008D+00
  0.120900D+00  0.343406D+00
   p     1 1.00
  0.382700D+00  0.100000D+01
   p     1 1.00
  0.120900D+00  0.100000D+01
   d     1 1.00
  0.109700D+01  0.100000D+01
   d     1 1.00
  0.318000D+00  0.100000D+01
   f     1 1.00
  0.761000D+00  0.100000D+01
  
  8  0
   s     4 1.00
  0.130100D+02  0.196850D-01
  0.196200D+01  0.137977D+00
  0.444600D+00  0.478148D+00
  0.122000D+00  0.501240D+00
   s     1 1.00
  0.122000D+00  0.100000D+01
   p     1 1.00
  0.727000D+00  0.100000D+01
  
  9  0
   s     4 1.00
  0.130100D+02  0.196850D-01
  0.196200D+01  0.137977D+00
  0.444600D+00  0.478148D+00
  0.122000D+00  0.501240D+00
   s     1 1.00
  0.122000D+00  0.100000D+01
   p     1 1.00
  0.727000D+00  0.100000D+01
  
 10  0
   s     4 1.00
  0.130100D+02  0.196850D-01
  0.196200D+01  0.137977D+00
  0.444600D+00  0.478148D+00
  0.122000D+00  0.501240D+00
   s     1 1.00
  0.122000D+00  0.100000D+01
   p     1 1.00
  0.727000D+00  0.100000D+01
  
 11  0
   s     4 1.00
  0.130100D+02  0.196850D-01
  0.196200D+01  0.137977D+00
  0.444600D+00  0.478148D+00
  0.122000D+00  0.501240D+00
   s     1 1.00
  0.122000D+00  0.100000D+01
   p     1 1.00
  0.727000D+00  0.100000D+01
  
 12  0
   s     4 1.00
  0.130100D+02  0.196850D-01
  0.196200D+01  0.137977D+00
  0.444600D+00  0.478148D+00
  0.122000D+00  0.501240D+00
   s     1 1.00
  0.122000D+00  0.100000D+01
   p     1 1.00
  0.727000D+00  0.100000D+01
  
 13  0
   s     4 1.00
  0.130100D+02  0.196850D-01
  0.196200D+01  0.137977D+00
  0.444600D+00  0.478148D+00
  0.122000D+00  0.501240D+00
   s     1 1.00
  0.122000D+00  0.100000D+01
   p     1 1.00
  0.727000D+00  0.100000D+01
  
 14  0
   s     4 1.00
  0.130100D+02  0.196850D-01
  0.196200D+01  0.137977D+00
  0.444600D+00  0.478148D+00
  0.122000D+00  0.501240D+00
   s     1 1.00
  0.122000D+00  0.100000D+01
   p     1 1.00
  0.727000D+00  0.100000D+01
  
[MO]
 Sym= __1_A__
 Ene=   1.00000000000000     
 Spin= Alpha
 Occup=    1.00000000000000     
                     1  4.183825468862304E-005
                     2  0.998069991702338     
                     3  9.264716985217808E-003
                     4  2.061765822840100E-003
                     5  1.529256585972798E-003
                     6  1.183507307478519E-007
                     7  1.810476348364214E-007
                     8  4.483948299360476E-003
                     9 -4.169041754864443E-009
                    10  6.023650507606473E-009
                    11 -1.193346286268782E-004
                    12 -3.315621235099299E-009
                    13 -3.586360709565092E-008
                    14 -8.176901348510449E-005
                    15  2.688550948064392E-004
                    16  1.499752937544281E-008
                    17  1.521327489974002E-008
                    18 -1.170913239845757E-004
                    19  1.245955767736584E-005
                    20  1.637396057066517E-004
                    21 -5.375196205893760E-009
                    22  1.369573875584395E-008
                    23  5.783473730830814E-004
                    24 -6.849255894189252E-005
                    25 -1.897077649434198E-004
                    26  9.287211869930359E-009
                    27  2.801948839992435E-008
                    28  9.136716691701806E-005
                    29 -7.247093349871148E-006
                    30 -3.259375342275822E-009
                    31  3.336119015545452E-009
                    32 -3.698725173001311E-004
                    33  2.714210285544518E-003
                    34  1.460422272663737E-004
                    35 -2.459767032026323E-004
                    36 -1.924880386544670E-007
                    37 -2.877084586156034E-007
                    38 -7.108737364471187E-003
                    39  1.285795357971110E-008
                    40 -3.344387754740972E-008
                    41  3.854202125870107E-004
                    42  1.172455763743394E-007
                    43  2.278660661640632E-007
                    44  4.408072030482703E-003
                    45  3.492302000444107E-004
                    46  1.243511712675165E-008
                    47  4.174783024065683E-008
                    48  1.383786075026425E-004
                    49 -2.174272623680901E-006
                    50  4.794734401316373E-005
                    51  1.459861418601362E-008
                    52 -1.587432985921190E-007
                    53 -4.576502623164138E-004
                    54  1.784197292244763E-005
                    55 -1.114071229315378E-004
                    56  4.225515092274106E-009
                    57  1.474973938688423E-008
                    58  7.800178529882812E-005
                    59 -3.498980153723719E-006
                    60 -2.570682427401010E-009
                    61  3.006413397464590E-010
                    62 -2.112876278506168E-004
                    63 -1.681238186054858E-003
                    64  6.003792408450764E-005
                    65  5.559044003246046E-004
                    66 -4.345207812747420E-006
                    67 -8.408883180942913E-004
                    68  1.015145669097780E-003
                    69  8.699740934477082E-006
                    70 -3.515527738649610E-005
                    71  6.221655160662098E-004
                    72  4.468761970306811E-006
                    73 -5.650851104854780E-004
                    74 -1.321547458603850E-004
                    75  9.252091542957869E-005
                    76  4.917177055226346E-007
                    77 -8.465647941142994E-006
                    78  4.195857620805340E-005
                    79 -9.588257208115246E-008
                    80 -2.440295980250596E-005
                    81 -6.461719330709104E-006
                    82  2.113415755050254E-004
                    83 -3.082841355461030E-005
                    84  5.169499685672427E-006
                    85 -9.333680498961113E-005
                    86  5.936201739923006E-007
                    87 -2.973421509272013E-005
                    88  2.001664397655016E-005
                    89 -1.267411675120530E-006
                    90  3.090648544281488E-007
                    91  1.285950307763821E-005
                    92 -2.112515065481684E-004
                    93 -1.681092723282734E-003
                    94  6.020316302661188E-005
                    95  5.553569473696851E-004
                    96  4.398052813519276E-006
                    97  8.409948089610596E-004
                    98  1.015181091848308E-003
                    99 -8.667190354623877E-006
                   100  3.506887210506664E-005
                   101  6.215304354860811E-004
                   102 -4.473231754321531E-006
                   103  5.644997268054847E-004
                   104 -1.320494844765124E-004
                   105  9.248703930509260E-005
                   106 -4.853940886183642E-007
                   107  8.499882502508222E-006
                   108  4.195985259244430E-005
                   109 -9.547002236468194E-008
                   110 -2.481348514974216E-005
                   111  6.460128812970568E-006
                   112 -2.114541867293867E-004
                   113 -3.089942623120534E-005
                   114  5.159541166605890E-006
                   115 -9.326344326051560E-005
                   116 -5.837115184110965E-007
                   117  2.975853351346303E-005
                   118  2.000954148702612E-005
                   119 -1.264437706479936E-006
                   120 -3.107353660053137E-007
                   121 -1.285671923132251E-005
                   122 -1.477565840796854E-004
                   123  6.869312755779865E-006
                   124  1.108235629285626E-004
                   125  1.284341562114956E-004
                   126 -4.606737268399778E-006
                   127  4.132319550428811E-005
                   128 -7.994097508903706E-004
                   129  4.234260349807921E-007
                   130  2.008310381867445E-005
                   131  3.507530101161643E-004
                   132  3.097246477441505E-006
                   133 -1.712687575174961E-004
                   134  7.079286851249695E-004
                   135 -1.733902478316956E-005
                   136  3.586261254658673E-007
                   137  1.816042838250706E-006
                   138  1.497767887916229E-006
                   139  2.689246682792100E-007
                   140 -1.888248151303229E-004
                   141 -3.327626862706026E-006
                   142  1.694358796377594E-004
                   143  1.272136122058936E-005
                   144 -1.620881292448426E-006
                   145 -3.924036369866007E-005
                   146  1.306243509504832E-007
                   147  1.369793111039732E-006
                   148 -9.667558761535992E-006
                   149 -2.566327912413894E-007
                   150 -1.329700718544292E-007
                   151 -3.632779549067212E-006
                   152 -1.482320195968813E-004
                   153  5.191166727788616E-006
                   154  1.103496017159292E-004
                   155  1.314421339129403E-004
                   156  4.559223889345914E-006
                   157 -4.133738404902199E-005
                   158 -7.993746977750481E-004
                   159 -3.958779118352191E-007
                   160 -2.039803157642970E-005
                   161  3.503912744842535E-004
                   162 -3.062194368605824E-006
                   163  1.718808462320007E-004
                   164  7.080799748613498E-004
                   165 -1.728471022529442E-005
                   166 -3.605269137909747E-007
                   167 -1.825809768033533E-006
                   168  1.446825327338943E-006
                   169  2.680823092439747E-007
                   170 -1.886625475298748E-004
                   171  3.308073439169191E-006
                   172 -1.697166807540866E-004
                   173  1.269423679668549E-005
                   174 -1.628576882097310E-006
                   175 -3.915407206925394E-005
                   176 -1.236255514755253E-007
                   177 -1.354982947526977E-006
                   178 -9.718120352574219E-006
                   179 -2.570778860897432E-007
                   180  1.333236898750297E-007
                   181  3.640708878773178E-006
                   182 -1.218782344574436E-004
                   183 -3.269464396840270E-004
                   184  3.223704268800647E-005
                   185  1.477783750793410E-004
                   186 -4.870562215576313E-009
                   187  8.325699959239251E-008
                   188 -4.077075987101879E-005
                   189  6.941998244656001E-009
                   190 -4.217020133793544E-007
                   191  1.805000655716517E-005
                   192  2.403669417334532E-009
                   193 -3.393021655474416E-008
                   194  5.368800507431632E-005
                   195  1.920105667296272E-005
                   196  3.797268398667784E-010
                   197  2.516339567821390E-008
                   198  9.126555936454814E-006
                   199  1.192119719634488E-007
                   200  5.908097696493353E-005
                   201  6.877229032053366E-010
                   202  2.132162467955096E-007
                   203  4.986448261004620E-005
                   204 -1.292049666224424E-006
                   205 -1.164845490797093E-005
                   206  7.618818178416593E-010
                   207 -6.721864341736542E-009
                   208  3.176339551095422E-006
                   209  3.307831162446832E-007
                   210  3.970830240131412E-010
                   211  2.689133124014114E-008
                   212  3.854964593795724E-003
                   213 -2.325218171602338E-003
                   214  3.528115318512277E-005
                   215  4.664233878725019E-004
                   216  3.802148669771395E-004
                   217  3.854944716560949E-003
                   218 -2.325208824146694E-003
                   219 -3.526143339267894E-005
                   220 -4.663893626122127E-004
                   221  3.802609946046670E-004
                   222 -6.689539898936016E-004
                   223 -1.215092392000774E-004
                   224  2.830924762593167E-007
                   225 -1.708476104855207E-005
                   226 -4.520315040684365E-005
                   227 -6.690230560600584E-004
                   228 -1.211385063961415E-004
                   229 -2.857982746981367E-007
                   230  1.706276887834822E-005
                   231 -4.523116375357931E-005
                   232 -2.338288118500849E-004
                   233 -4.086470060850322E-004
                   234 -3.868970898566867E-007
                   235 -5.700237692340519E-006
                   236  5.885743173782171E-006
                   237 -2.338680210115680E-004
                   238 -4.088078679871062E-004
                   239  3.864703844015910E-007
                   240  5.746885986123276E-006
                   241  5.931739235608635E-006
                   242  6.900807985447542E-005
                   243 -1.301898402080743E-004
                   244  7.983104365203345E-011
                   245 -2.011816652454287E-008
                   246  1.440496359220354E-005
 Sym= __2_A__
 Ene=   2.00000000000000     
 Spin= Alpha
 Occup=    1.00000000000000     
                     1 -4.648645452394278E-005
                     2 -2.151524230659436E-004
                     3  2.292178717683693E-003
                     4  1.016562885826391E-004
                     5  1.263868956461459E-003
                     6  8.047758625172109E-008
                     7  1.357273935870525E-007
                     8  3.007670165924482E-003
                     9 -1.532253092473284E-009
                    10 -6.820764852622377E-009
                    11 -5.021472148674442E-005
                    12 -1.371151889000562E-008
                    13 -1.706072487081695E-008
                    14 -5.456593305014631E-004
                    15  4.272268431180399E-005
                    16  3.458466658518771E-010
                    17  6.529364351932504E-009
                    18  6.500035653112736E-005
                    19 -4.535549508126669E-006
                    20 -2.845446200572294E-004
                    21 -4.685634738945318E-009
                    22 -3.761901012423428E-008
                    23 -3.344751174875148E-004
                    24  2.642815138237191E-005
                    25  1.802909652182500E-004
                    26 -1.046115022545290E-008
                    27 -1.813418690025863E-008
                    28 -1.015481269239232E-006
                    29 -5.556091698545563E-006
                    30 -1.226087594015066E-010
                    31  3.405662502363655E-010
                    32   1.00106029701080     
                    33  9.287621557339403E-003
                    34  2.631677517354358E-003
                    35 -7.762848541221458E-003
                    36 -1.104102311968267E-007
                    37 -1.827684703713319E-007
                    38 -4.147049988642043E-003
                    39  2.677116039392832E-008
                    40  4.231811239076285E-008
                    41  1.006288860666424E-003
                    42  1.185082897443697E-007
                    43  1.247224308464549E-007
                    44  4.445971917615709E-003
                    45  4.758649645886898E-004
                    46  3.321511387275518E-008
                    47  1.424724481890794E-008
                    48 -4.309892266792962E-004
                    49  3.339314992023462E-006
                    50  5.805702281466928E-004
                    51  2.735981668206479E-009
                    52  9.095285440157767E-008
                    53  9.382003258225447E-004
                    54 -6.016816773845470E-006
                    55  3.865030559666857E-004
                    56 -1.711582279229202E-008
                    57 -5.641869583301825E-008
                    58 -2.061072786716502E-004
                    59  2.413309210144178E-006
                    60  6.873152453479032E-009
                    61 -9.208209740522617E-009
                    62  7.203663595946983E-003
                    63 -2.057659522423635E-003
                    64 -2.762060277709922E-004
                    65  3.039160724158154E-003
                    66  1.657149705268179E-006
                    67  9.456767371646089E-005
                    68 -8.244467395804283E-006
                    69 -6.640974590608430E-006
                    70  6.006051719509508E-004
                    71  1.790556243012781E-005
                    72  1.091700352285613E-005
                    73 -2.096643153051949E-003
                    74  9.606056535002585E-005
                    75 -1.505159808197218E-005
                    76  1.881373742340899E-007
                    77  1.373549290001554E-005
                    78  2.898600324571538E-005
                    79  3.668153017804498E-007
                    80  7.633770165196611E-004
                    81  5.080181294243144E-006
                    82 -4.227144766536714E-004
                    83 -1.145182447184271E-005
                    84 -3.311076704754953E-006
                    85  7.328261159225109E-005
                    86 -1.080276706092390E-007
                    87  4.607395814018619E-005
                    88 -1.271393941048659E-004
                    89  4.268094431644831E-007
                    90  2.417438852603232E-007
                    91  5.015048703380985E-005
                    92  7.203636892543850E-003
                    93 -2.057743236543013E-003
                    94 -2.762455933358024E-004
                    95  3.039352748434990E-003
                    96 -1.657063160486971E-006
                    97 -9.456866274911434E-005
                    98 -8.257205589501419E-006
                    99  6.641342895917405E-006
                   100 -6.006062986410086E-004
                   101  1.807547210581627E-005
                   102 -1.091281409436352E-005
                   103  2.096766526400132E-003
                   104  9.572880781510580E-005
                   105 -1.503619670314754E-005
                   106 -1.910938262694561E-007
                   107 -1.374104723895104E-005
                   108  2.898559881781880E-005
                   109  3.660674342664571E-007
                   110  7.633671849056834E-004
                   111 -5.009744177200892E-006
                   112  4.228736388874807E-004
                   113 -1.147158342134922E-005
                   114 -3.288946477929438E-006
                   115  7.326087917053250E-005
                   116  1.089729207816181E-007
                   117 -4.610367852596819E-005
                   118 -1.271255416914640E-004
                   119  4.262312553680299E-007
                   120 -2.333582175453719E-007
                   121 -5.016208670177823E-005
                   122 -2.330947111354130E-004
                   123 -7.540043006221070E-004
                   124  2.243913057665052E-004
                   125 -1.097920359077506E-004
                   126 -8.052231335944537E-007
                   127 -1.812595243274329E-005
                   128 -2.556354979093764E-004
                   129  1.432299252585671E-006
                   130 -9.372957794239559E-006
                   131  5.354231814927383E-004
                   132 -2.339557560443889E-006
                   133  3.283868602413258E-004
                   134  7.510671410155652E-004
                   135 -1.393660826738252E-005
                   136 -4.613935634482081E-007
                   137  5.165200826394302E-005
                   138  1.391041747661543E-005
                   139  2.435179331341292E-007
                   140 -2.893054300611922E-004
                   141  1.155022677309124E-006
                   142 -2.183979822797943E-004
                   143 -1.308557534482686E-005
                   144 -8.756395453648335E-007
                   145  1.252396605805244E-006
                   146  3.792804748131340E-007
                   147 -4.119367953474913E-005
                   148 -3.980646708444270E-005
                   149 -4.051246901573287E-007
                   150  1.818680572974337E-007
                   151 -5.541349009857924E-006
                   152 -2.328166177640433E-004
                   153 -7.530817714811168E-004
                   154  2.244434719244290E-004
                   155 -1.107385046428110E-004
                   156  7.913992684089210E-007
                   157  1.809625164837010E-005
                   158 -2.556403183213975E-004
                   159 -1.403934369229071E-006
                   160  9.452850607849056E-006