[Molden Format]
[Atoms] AU
  N     1    7    -0.1798695400   -4.4469655000    0.1269507500        
  C     2    6    -0.0371656800   -1.7158773600    0.0889261000        
  C     3    6    -2.2780878600   -0.3820633200    0.1874730400        
  C     4    6     2.2206499400   -0.4484246300   -0.0580354600        
  C     5    6    -2.2483034300    2.2141963600    0.1060043200        
  C     6    6     2.2390584800    2.1570982000   -0.1073362800        
  C     7    6     0.0088527100    3.4907849400   -0.0416947700        
  H     8    1    -0.8662003400   -5.3560357200   -2.8768666200        
  H     9    1     1.6651533700   -5.1321256300    0.0255119400        
  H    10    1    -4.0235829900   -1.3984487700    0.3489741700        
  H    11    1     3.9641953100   -1.4807793700   -0.1500905100        
  H    12    1    -3.9929849300    3.2475419400    0.1903471700        
  H    13    1     4.0073699700    3.1497933000   -0.2029372700        
  H    14    1     0.0348466500    5.5197064600   -0.0951084700        
[5D]
[7F]
[GTO]
  1  0
   s    12 1.00
  0.114200D+05  0.172695D-04
  0.171200D+04  0.134411D-03
  0.389300D+03  0.694561D-03
  0.110000D+03  0.278531D-02
  0.355700D+02  0.863457D-02
  0.125400D+02  0.199805D-01
  0.464400D+01  0.262908D-01
  0.129300D+01 -0.243845D-01
  0.511800D+00 -0.924934D-01
  0.178700D+00 -0.339683D+00
  0.246240D-01  0.345111D+00
  0.112530D-01  0.752750D+00
   s    10 1.00
  0.114200D+05  0.523000D-03
  0.171200D+04  0.404500D-02
  0.389300D+03  0.207750D-01
  0.110000D+03  0.807269D-01
  0.355700D+02  0.233074D+00
  0.125400D+02  0.433501D+00
  0.464400D+01  0.347472D+00
  0.129300D+01  0.412620D-01
  0.511800D+00 -0.850799D-02
  0.178700D+00  0.238400D-02
   s    10 1.00
  0.114200D+05 -0.115000D-03
  0.171200D+04 -0.895000D-03
  0.389300D+03 -0.462400D-02
  0.110000D+03 -0.185280D-01
  0.355700D+02 -0.573390D-01
  0.125400D+02 -0.132076D+00
  0.464400D+01 -0.172510D+00
  0.129300D+01  0.151814D+00
  0.511800D+00  0.599944D+00
  0.178700D+00  0.387462D+00
   s     1 1.00
  0.129300D+01  0.100000D+01
   s     1 1.00
  0.178700D+00  0.100000D+01
   p     5 1.00
  0.266300D+02  0.146700D-01
  0.594800D+01  0.917640D-01
  0.174200D+01  0.298683D+00
  0.555000D+00  0.498487D+00
  0.172500D+00  0.337023D+00
   p     1 1.00
  0.174200D+01  0.100000D+01
   p     1 1.00
  0.555000D+00  0.100000D+01
   d     1 1.00
  0.165400D+01  0.100000D+01
   d     1 1.00
  0.469000D+00  0.100000D+01
   f     1 1.00
  0.109300D+01  0.100000D+01
  
  2  0
   s    10 1.00
  0.823600D+04  0.531000D-03
  0.123500D+04  0.410800D-02
  0.280800D+03  0.210870D-01
  0.792700D+02  0.818530D-01
  0.255900D+02  0.234817D+00
  0.899700D+01  0.434401D+00
  0.331900D+01  0.346129D+00
  0.905900D+00  0.393780D-01
  0.364300D+00 -0.898300D-02
  0.128500D+00  0.238500D-02
   s    10 1.00
  0.823600D+04 -0.113000D-03
  0.123500D+04 -0.878000D-03
  0.280800D+03 -0.454000D-02
  0.792700D+02 -0.181330D-01
  0.255900D+02 -0.557600D-01
  0.899700D+01 -0.126895D+00
  0.331900D+01 -0.170352D+00
  0.905900D+00  0.140382D+00
  0.364300D+00  0.598684D+00
  0.128500D+00  0.395389D+00
   s     1 1.00
  0.905900D+00  0.100000D+01
   s     1 1.00
  0.364300D+00  0.100000D+01
   p     5 1.00
  0.187100D+02  0.140310D-01
  0.413300D+01  0.868660D-01
  0.120000D+01  0.290216D+00
  0.382700D+00  0.501008D+00
  0.120900D+00  0.343406D+00
   p     1 1.00
  0.382700D+00  0.100000D+01
   p     1 1.00
  0.120900D+00  0.100000D+01
   d     1 1.00
  0.109700D+01  0.100000D+01
   d     1 1.00
  0.318000D+00  0.100000D+01
   f     1 1.00
  0.761000D+00  0.100000D+01
  
  3  0
   s    10 1.00
  0.823600D+04  0.531000D-03
  0.123500D+04  0.410800D-02
  0.280800D+03  0.210870D-01
  0.792700D+02  0.818530D-01
  0.255900D+02  0.234817D+00
  0.899700D+01  0.434401D+00
  0.331900D+01  0.346129D+00
  0.905900D+00  0.393780D-01
  0.364300D+00 -0.898300D-02
  0.128500D+00  0.238500D-02
   s    10 1.00
  0.823600D+04 -0.113000D-03
  0.123500D+04 -0.878000D-03
  0.280800D+03 -0.454000D-02
  0.792700D+02 -0.181330D-01
  0.255900D+02 -0.557600D-01
  0.899700D+01 -0.126895D+00
  0.331900D+01 -0.170352D+00
  0.905900D+00  0.140382D+00
  0.364300D+00  0.598684D+00
  0.128500D+00  0.395389D+00
   s     1 1.00
  0.905900D+00  0.100000D+01
   s     1 1.00
  0.364300D+00  0.100000D+01
   p     5 1.00
  0.187100D+02  0.140310D-01
  0.413300D+01  0.868660D-01
  0.120000D+01  0.290216D+00
  0.382700D+00  0.501008D+00
  0.120900D+00  0.343406D+00
   p     1 1.00
  0.382700D+00  0.100000D+01
   p     1 1.00
  0.120900D+00  0.100000D+01
   d     1 1.00
  0.109700D+01  0.100000D+01
   d     1 1.00
  0.318000D+00  0.100000D+01
   f     1 1.00
  0.761000D+00  0.100000D+01
  
  4  0
   s    10 1.00
  0.823600D+04  0.531000D-03
  0.123500D+04  0.410800D-02
  0.280800D+03  0.210870D-01
  0.792700D+02  0.818530D-01
  0.255900D+02  0.234817D+00
  0.899700D+01  0.434401D+00
  0.331900D+01  0.346129D+00
  0.905900D+00  0.393780D-01
  0.364300D+00 -0.898300D-02
  0.128500D+00  0.238500D-02
   s    10 1.00
  0.823600D+04 -0.113000D-03
  0.123500D+04 -0.878000D-03
  0.280800D+03 -0.454000D-02
  0.792700D+02 -0.181330D-01
  0.255900D+02 -0.557600D-01
  0.899700D+01 -0.126895D+00
  0.331900D+01 -0.170352D+00
  0.905900D+00  0.140382D+00
  0.364300D+00  0.598684D+00
  0.128500D+00  0.395389D+00
   s     1 1.00
  0.905900D+00  0.100000D+01
   s     1 1.00
  0.364300D+00  0.100000D+01
   p     5 1.00
  0.187100D+02  0.140310D-01
  0.413300D+01  0.868660D-01
  0.120000D+01  0.290216D+00
  0.382700D+00  0.501008D+00
  0.120900D+00  0.343406D+00
   p     1 1.00
  0.382700D+00  0.100000D+01
   p     1 1.00
  0.120900D+00  0.100000D+01
   d     1 1.00
  0.109700D+01  0.100000D+01
   d     1 1.00
  0.318000D+00  0.100000D+01
   f     1 1.00
  0.761000D+00  0.100000D+01
  
  5  0
   s    10 1.00
  0.823600D+04  0.531000D-03
  0.123500D+04  0.410800D-02
  0.280800D+03  0.210870D-01
  0.792700D+02  0.818530D-01
  0.255900D+02  0.234817D+00
  0.899700D+01  0.434401D+00
  0.331900D+01  0.346129D+00
  0.905900D+00  0.393780D-01
  0.364300D+00 -0.898300D-02
  0.128500D+00  0.238500D-02
   s    10 1.00
  0.823600D+04 -0.113000D-03
  0.123500D+04 -0.878000D-03
  0.280800D+03 -0.454000D-02
  0.792700D+02 -0.181330D-01
  0.255900D+02 -0.557600D-01
  0.899700D+01 -0.126895D+00
  0.331900D+01 -0.170352D+00
  0.905900D+00  0.140382D+00
  0.364300D+00  0.598684D+00
  0.128500D+00  0.395389D+00
   s     1 1.00
  0.905900D+00  0.100000D+01
   s     1 1.00
  0.364300D+00  0.100000D+01
   p     5 1.00
  0.187100D+02  0.140310D-01
  0.413300D+01  0.868660D-01
  0.120000D+01  0.290216D+00
  0.382700D+00  0.501008D+00
  0.120900D+00  0.343406D+00
   p     1 1.00
  0.382700D+00  0.100000D+01
   p     1 1.00
  0.120900D+00  0.100000D+01
   d     1 1.00
  0.109700D+01  0.100000D+01
   d     1 1.00
  0.318000D+00  0.100000D+01
   f     1 1.00
  0.761000D+00  0.100000D+01
  
  6  0
   s    10 1.00
  0.823600D+04  0.531000D-03
  0.123500D+04  0.410800D-02
  0.280800D+03  0.210870D-01
  0.792700D+02  0.818530D-01
  0.255900D+02  0.234817D+00
  0.899700D+01  0.434401D+00
  0.331900D+01  0.346129D+00
  0.905900D+00  0.393780D-01
  0.364300D+00 -0.898300D-02
  0.128500D+00  0.238500D-02
   s    10 1.00
  0.823600D+04 -0.113000D-03
  0.123500D+04 -0.878000D-03
  0.280800D+03 -0.454000D-02
  0.792700D+02 -0.181330D-01
  0.255900D+02 -0.557600D-01
  0.899700D+01 -0.126895D+00
  0.331900D+01 -0.170352D+00
  0.905900D+00  0.140382D+00
  0.364300D+00  0.598684D+00
  0.128500D+00  0.395389D+00
   s     1 1.00
  0.905900D+00  0.100000D+01
   s     1 1.00
  0.364300D+00  0.100000D+01
   p     5 1.00
  0.187100D+02  0.140310D-01
  0.413300D+01  0.868660D-01
  0.120000D+01  0.290216D+00
  0.382700D+00  0.501008D+00
  0.120900D+00  0.343406D+00
   p     1 1.00
  0.382700D+00  0.100000D+01
   p     1 1.00
  0.120900D+00  0.100000D+01
   d     1 1.00
  0.109700D+01  0.100000D+01
   d     1 1.00
  0.318000D+00  0.100000D+01
   f     1 1.00
  0.761000D+00  0.100000D+01
  
  7  0
   s    10 1.00
  0.823600D+04  0.531000D-03
  0.123500D+04  0.410800D-02
  0.280800D+03  0.210870D-01
  0.792700D+02  0.818530D-01
  0.255900D+02  0.234817D+00
  0.899700D+01  0.434401D+00
  0.331900D+01  0.346129D+00
  0.905900D+00  0.393780D-01
  0.364300D+00 -0.898300D-02
  0.128500D+00  0.238500D-02
   s    10 1.00
  0.823600D+04 -0.113000D-03
  0.123500D+04 -0.878000D-03
  0.280800D+03 -0.454000D-02
  0.792700D+02 -0.181330D-01
  0.255900D+02 -0.557600D-01
  0.899700D+01 -0.126895D+00
  0.331900D+01 -0.170352D+00
  0.905900D+00  0.140382D+00
  0.364300D+00  0.598684D+00
  0.128500D+00  0.395389D+00
   s     1 1.00
  0.905900D+00  0.100000D+01
   s     1 1.00
  0.364300D+00  0.100000D+01
   p     5 1.00
  0.187100D+02  0.140310D-01
  0.413300D+01  0.868660D-01
  0.120000D+01  0.290216D+00
  0.382700D+00  0.501008D+00
  0.120900D+00  0.343406D+00
   p     1 1.00
  0.382700D+00  0.100000D+01
   p     1 1.00
  0.120900D+00  0.100000D+01
   d     1 1.00
  0.109700D+01  0.100000D+01
   d     1 1.00
  0.318000D+00  0.100000D+01
   f     1 1.00
  0.761000D+00  0.100000D+01
  
  8  0
   s     4 1.00
  0.130100D+02  0.196850D-01
  0.196200D+01  0.137977D+00
  0.444600D+00  0.478148D+00
  0.122000D+00  0.501240D+00
   s     1 1.00
  0.122000D+00  0.100000D+01
   p     1 1.00
  0.727000D+00  0.100000D+01
  
  9  0
   s     4 1.00
  0.130100D+02  0.196850D-01
  0.196200D+01  0.137977D+00
  0.444600D+00  0.478148D+00
  0.122000D+00  0.501240D+00
   s     1 1.00
  0.122000D+00  0.100000D+01
   p     1 1.00
  0.727000D+00  0.100000D+01
  
 10  0
   s     4 1.00
  0.130100D+02  0.196850D-01
  0.196200D+01  0.137977D+00
  0.444600D+00  0.478148D+00
  0.122000D+00  0.501240D+00
   s     1 1.00
  0.122000D+00  0.100000D+01
   p     1 1.00
  0.727000D+00  0.100000D+01
  
 11  0
   s     4 1.00
  0.130100D+02  0.196850D-01
  0.196200D+01  0.137977D+00
  0.444600D+00  0.478148D+00
  0.122000D+00  0.501240D+00
   s     1 1.00
  0.122000D+00  0.100000D+01
   p     1 1.00
  0.727000D+00  0.100000D+01
  
 12  0
   s     4 1.00
  0.130100D+02  0.196850D-01
  0.196200D+01  0.137977D+00
  0.444600D+00  0.478148D+00
  0.122000D+00  0.501240D+00
   s     1 1.00
  0.122000D+00  0.100000D+01
   p     1 1.00
  0.727000D+00  0.100000D+01
  
 13  0
   s     4 1.00
  0.130100D+02  0.196850D-01
  0.196200D+01  0.137977D+00
  0.444600D+00  0.478148D+00
  0.122000D+00  0.501240D+00
   s     1 1.00
  0.122000D+00  0.100000D+01
   p     1 1.00
  0.727000D+00  0.100000D+01
  
 14  0
   s     4 1.00
  0.130100D+02  0.196850D-01
  0.196200D+01  0.137977D+00
  0.444600D+00  0.478148D+00
  0.122000D+00  0.501240D+00
   s     1 1.00
  0.122000D+00  0.100000D+01
   p     1 1.00
  0.727000D+00  0.100000D+01
  
[MO]
 Sym= __1_A__
 Ene=  0.000000000000000E+000
 Spin= Alpha
 Occup=    2.00000000000000     
                     1  2.358526984500873E-004
                     2  0.998286519664371     
                     3 -1.743597553140111E-003
                     4  1.657808857507589E-003
                     5  8.025786929892850E-003
                     6  4.884112060729343E-003
                     7  6.830897099230263E-003
                     8 -2.090727708907639E-003
                     9 -8.955739446426146E-004
                    10 -1.175078172861154E-003
                    11  2.652489760092505E-004
                    12 -3.551303917126857E-003
                    13 -2.746508387751936E-003
                    14  1.423856014137284E-003
                    15 -6.427917378754692E-005
                    16 -4.030918035124643E-005
                    17 -1.180256207047056E-005
                    18 -3.694087918931418E-005
                    19 -7.253729552490534E-005
                    20  2.469696006116496E-006
                    21 -4.960215542167025E-005
                    22 -1.635103842978411E-004
                    23 -2.247914797861648E-004
                    24  5.956145007148116E-004
                    25 -1.211010141097136E-005
                    26 -3.937722643762108E-005
                    27 -4.271882796396804E-005
                    28  9.779774195809516E-006
                    29 -2.418058358911494E-006
                    30  2.131067671858927E-005
                    31 -9.449134486530145E-005
                    32 -4.873638502845917E-004
                    33 -4.648973329862697E-004
                    34  1.977349776791212E-004
                    35  5.311620151392678E-004
                    36 -2.348997418105883E-004
                    37 -2.480676463346561E-003
                    38 -1.419295151873260E-004
                    39  9.897675713328802E-004
                    40  1.691728381278999E-004
                    41 -6.966423024679863E-005
                    42 -3.215152245530889E-003
                    43  5.682994984506410E-003
                    44  5.542333567038823E-004
                    45 -5.191377590211880E-005
                    46  4.234061277927851E-006
                    47  2.638787645039901E-005
                    48 -2.131744208137728E-004
                    49  3.359116222729161E-005
                    50 -2.038236446986581E-004
                    51 -5.581269204108362E-005
                    52 -2.165097299815428E-004
                    53  5.204061103628744E-004
                    54  9.911296026447807E-004
                    55  7.658809817206576E-006
                    56 -1.476321742500314E-005
                    57 -2.221792497787615E-005
                    58 -1.369284280014774E-005
                    59  4.707037253484159E-008
                    60  4.203269192883231E-005
                    61 -2.294121655868005E-005
                    62 -7.705426707930116E-004
                    63 -2.897211202303924E-003
                    64 -7.386547484624213E-005
                    65  2.844055227662782E-003
                    66 -4.871697249685283E-004
                    67  1.306932447422195E-004
                    68 -1.354486838112482E-004
                    69  6.923511145595434E-004
                    70  1.016857392779841E-003
                    71 -3.829061512372428E-005
                    72 -1.626601874365528E-003
                    73  1.243122830246251E-003
                    74 -9.243369450991209E-005
                    75 -4.330464976427164E-005
                    76  1.120168025141852E-005
                    77 -2.566384256941907E-006
                    78 -9.050843184739271E-005
                    79 -3.430208516246284E-005
                    80 -1.865715407623734E-004
                    81 -6.488572811340784E-005
                    82 -2.601913632420312E-005
                    83  3.676558419946014E-004
                    84  1.574359436396326E-004
                    85 -1.743015503071326E-006
                    86 -1.842983358405542E-005
                    87 -4.471470203644959E-005
                    88  1.581146047683930E-005
                    89  6.652812720940635E-006
                    90 -2.051838016964112E-005
                    91 -1.617747025495715E-004
                    92 -1.254230935440704E-004
                    93 -5.999300464647609E-004
                    94  3.136406109626268E-004
                    95 -8.854053977898962E-004
                    96  2.066332669620993E-004
                    97  2.278296235559055E-004
                    98 -1.696148105554122E-004
                    99  6.078786459146286E-004
                   100  4.222164407672079E-004
                   101 -2.031076141135528E-005
                   102  3.837436399659079E-004
                   103 -2.498068643674302E-003
                   104 -1.418294390680880E-004
                   105  4.932392811517770E-006
                   106 -3.581558933709301E-006
                   107 -1.522099420231742E-006
                   108 -6.728635764419663E-005
                   109 -2.428643929515675E-005
                   110  2.415893853107385E-004
                   111  5.589704093148983E-005
                   112  2.219702222933691E-005
                   113 -8.293128601867039E-005
                   114 -1.598133269604591E-004
                   115 -2.617524940988479E-006
                   116 -2.377777838054954E-005
                   117 -2.857905139785452E-005
                   118  6.621547338685920E-006
                   119 -9.572114843504599E-006
                   120 -7.904130389131893E-006
                   121  3.024278428253188E-005
                   122 -3.233951038313727E-004
                   123 -8.564347820634367E-004
                   124  1.370731960270845E-004
                   125  8.564672986693085E-004
                   126 -4.657642176753536E-005
                   127 -3.985866849443545E-004
                   128 -8.984481440425194E-005
                   129  3.069173361750531E-004
                   130  6.851744750011595E-004
                   131 -2.276262807342380E-005
                   132  2.783928653411425E-004
                   133  2.878945278338335E-003
                   134 -2.664403228234173E-005
                   135  2.204578790722877E-006
                   136 -2.709328549800528E-006
                   137  5.979441976319638E-006
                   138  4.648298246095044E-005
                   139 -9.475929922172417E-007
                   140  2.405855274539189E-004
                   141 -2.006729849686883E-005
                   142 -9.788892329335340E-006
                   143  4.581002304993546E-004
                   144  4.011115547405026E-004
                   145 -7.993996061382315E-006
                   146 -1.288289154256946E-005
                   147 -8.180034899534815E-005
                   148  8.621952716954270E-007
                   149 -6.242729122022301E-006
                   150 -3.923720315048067E-005
                   151 -5.127851790545374E-005
                   152 -1.542119228070301E-004
                   153 -3.719655934902169E-004
                   154 -2.191639514059215E-005
                   155  4.984023005973423E-004
                   156 -3.818183698515080E-005
                   157 -2.310557293175572E-004
                   158 -9.650381500465446E-005
                   159  1.551824988688480E-004
                   160 -7.792785250221611E-005
                   161 -2.628507453286739E-007
                   162  1.016705795032504E-003
                   163 -8.732997607181159E-004
                   164  3.794203084543312E-005
                   165 -6.370045903447286E-006
                   166  1.510018134996749E-006
                   167  3.061185135241905E-006
                   168 -2.107885317117702E-005
                   169  1.175201242324675E-005
                   170  3.269282147070262E-005
                   171  8.840011489825914E-006
                   172 -3.270903891570661E-006
                   173 -2.078933824182422E-005
                   174 -4.038640754401914E-005
                   175 -9.113671961287470E-007
                   176  3.571785887868054E-006
                   177 -6.454773583229173E-006
                   178  1.512231609548878E-008
                   179  3.342021318251062E-006
                   180 -1.827229415030554E-005
                   181 -7.835536911163023E-006
                   182 -1.543484184303619E-004
                   183 -4.779899989318299E-004
                   184  5.684307155214232E-005
                   185  1.106654899115944E-004
                   186 -7.591515143917135E-005
                   187 -3.220760648671324E-005
                   188 -8.401743687814541E-005
                   189  3.777522984562528E-004
                   190  1.503114716234528E-004
                   191 -5.426773601695341E-006
                   192  2.063222351987402E-003
                   193 -4.933492638062853E-004
                   194 -1.122332408261031E-004
                   195  4.338151307331082E-006
                   196  4.714080744661823E-007
                   197 -1.939231341754031E-008
                   198 -8.370855216710710E-006
                   199  6.327543301132773E-006
                   200  2.476590496535367E-005
                   201  1.670239444489168E-005
                   202  2.056768388671946E-005
                   203 -1.554484114770807E-004
                   204 -3.060792765442230E-004
                   205 -2.582505418789705E-006
                   206 -1.547070544640018E-005
                   207 -6.692685375336735E-006
                   208  1.642942203538593E-006
                   209 -2.173683411397629E-006
                   210  1.661354940238242E-005
                   211  8.668327025203916E-006
                   212 -2.089481577247319E-004
                   213  9.342071089260117E-006
                   214 -6.814551105579926E-005
                   215 -3.365606253309889E-006
                   216 -4.476463726018080E-006
                   217  3.431346804880073E-004
                   218 -1.440728026931861E-003
                   219 -3.778322158624990E-004
                   220  8.231865281877073E-005
                   221  8.343353440563261E-005
                   222 -4.272798382734927E-004
                   223 -3.059968811490783E-004
                   224  5.588181900067260E-005
                   225 -9.462429378657487E-005
                   226 -7.616071483922522E-007
                   227 -1.093088066587119E-004
                   228 -6.104633259311627E-004
                   229 -6.874287499195426E-005
                   230 -1.270932288472168E-005
                   231  3.982451857133425E-006
                   232  5.135637676250602E-005
                   233 -8.114762004153215E-004
                   234  1.086105461848195E-005
                   235 -3.661452801356613E-006
                   236 -4.688893502421675E-006
                   237 -8.346097387929836E-005
                   238 -3.535664969576421E-004
                   239  1.292135474715853E-005
                   240  1.660339527583483E-005
                   241 -4.146512361521024E-006
                   242 -2.783337636841949E-005
                   243  1.417638800633346E-004
                   244  8.212945861282714E-007
                   245  3.231367928754282E-005
                   246 -2.120155680058557E-006
 Sym= __2_A__
 Ene=  0.000000000000000E+000
 Spin= Alpha
 Occup=    2.00000000000000     
                     1 -9.702278426562353E-006
                     2 -1.356604150899851E-004
                     3  1.858457162244574E-003
                     4 -4.157244519426056E-006
                     5  1.117895988696732E-003
                     6 -2.557728751325984E-004
                     7  1.941761692625536E-003
                     8 -2.277081529753483E-004
                     9 -4.053626586005626E-005
                    10 -1.271891335443125E-004
                    11  5.732791655529623E-005
                    12  2.374691756890341E-005
                    13  4.185821169748425E-005
                    14  6.239669289349832E-005
                    15 -3.879591340859639E-006
                    16  9.068726169865268E-007
                    17 -8.447077164166027E-006
                    18 -8.120890062913265E-005
                    19  2.174363374173797E-005
                    20 -1.673492814920140E-004
                    21 -1.724946599195963E-005
                    22 -2.582582280754553E-006
                    23  1.128372866656873E-005
                    24 -7.018840506222264E-005
                    25  1.411807264414607E-006
                    26 -1.760374176004334E-005
                    27  7.046647164920599E-005
                    28 -7.820701071776166E-006
                    29 -5.016804908525120E-006
                    30 -6.260179638794561E-005
                    31  1.478048414838891E-004
                    32   1.00072902238381     
                    33  8.996700907304324E-003
                    34  2.969256921071644E-003
                    35 -8.645259999407576E-003
                    36  5.862959535946468E-005
                    37 -2.019640073083894E-003
                    38  1.321070770585073E-004
                    39 -1.815999547292683E-004
                    40  6.011265305235801E-004
                    41 -1.793822597824550E-004
                    42 -9.549222268707676E-005
                    43  3.050723322234553E-003
                    44 -1.555860356951749E-004
                    45 -4.994795247826410E-004
                    46 -4.775675074554918E-005
                    47 -5.852240790133550E-007
                    48  1.147577303702247E-004
                    49  2.935064741780856E-005
                    50  6.855479523403807E-004
                    51  1.349253778275498E-004
                    52 -1.226281007664940E-005
                    53 -1.101093305224337E-003
                    54 -2.322415374091327E-004
                    55 -1.369264880471834E-005
                    56  7.079107087702489E-006
                    57  6.029335104441364E-006
                    58 -1.039731342340032E-005
                    59 -1.704271486572692E-005
                    60 -2.332534215083425E-005
                    61  3.124471020387864E-004
                    62  1.779363961725167E-002
                    63 -1.865365286286900E-003
                    64 -3.069810145117715E-004
                    65  3.133233399032440E-003
                    66  2.402218216001497E-004
                    67 -3.364568390343240E-005
                    68 -9.461634778365583E-005
                    69  4.192186379290147E-004
                    70 -1.090995698263647E-004
                    71 -8.823658178207734E-006
                    72 -1.858565565812388E-003
                    73  2.629183366768810E-004
                    74  1.357747707378896E-004
                    75  3.567000312542839E-005
                    76 -1.373836009042001E-006
                    77  1.560173956656777E-006
                    78  9.380718289838428E-006
                    79  2.797478664294462E-005
                    80 -4.643830894470461E-004
                    81  4.233721432006278E-005
                    82 -2.953669155532713E-005
                    83 -8.831119089137240E-004
                    84 -4.932252527517435E-004
                    85  6.032223312611689E-006
                    86  4.687663505834654E-005
                    87 -4.934170484886814E-005
                    88  1.079205664746303E-005
                    89 -1.289333220493376E-005
                    90  3.254201655289985E-005
                    91  1.056396460847422E-004
                    92  2.152562873592917E-002
                    93 -1.807194822009495E-003
                    94 -3.557149413224159E-004
                    95  3.560920877225535E-003
                    96 -2.516963312035160E-004
                    97 -1.170830310841119E-004
                    98 -6.627188922954157E-005
                    99 -7.229803691443658E-004
                   100 -1.397113210043044E-004
                   101  6.424106533606255E-005
                   102  1.767482596781744E-003
                   103  2.919410509106691E-005
                   104 -6.648246587066418E-005
                   105  2.297026777002181E-005
                   106  5.102284947332764E-006
                   107  9.759261378341833E-007
                   108  8.192033474545061E-006
                   109 -1.623269369554244E-005
                   110 -4.539071545379376E-004
                   111 -4.272356172128884E-005
                   112 -6.444536851824909E-005
                   113 -6.948271938172338E-004
                   114  5.428817090987282E-004
                   115 -5.586928353208996E-006
                   116 -5.097991956862237E-005
                   117 -5.624808218749341E-005
                   118 -2.012820045840102E-006
                   119 -7.035113805934362E-006
                   120 -3.291125625365283E-005
                   121  8.098266459369561E-005
                   122  1.128448585724587E-004
                   123 -6.832241613383166E-004
                   124  2.329986440955263E-004
                   125 -3.204719169559462E-004
                   126 -6.100749746584306E-005
                   127 -2.413294882822342E-004
                   128 -2.150195113364988E-005
                   129  1.006903096920543E-004
                   130  6.205404553078919E-004
                   131 -2.557505823266145E-005
                   132  3.903145350657828E-004
                   133  6.387293800831032E-004
                   134 -3.919140783728954E-005
                   135  2.800503668245322E-005
                   136  5.533210308941673E-007
                   137  3.659905990173054E-007
                   138  1.492884868449083E-005
                   139  4.474448575580269E-005
                   140  1.105425650369074E-004
                   141 -4.875419220490849E-006
                   142  3.076323999993507E-005
                   143  2.905371494014908E-004
                   144 -2.710687506508437E-004
                   145 -2.361805345506855E-006
                   146 -4.193818877811081E-006
                   147 -2.082687904249699E-005
                   148 -1.621744329921224E-006
                   149 -1.116350483095044E-006
                   150 -1.684723443063977E-005
                   151  1.315028188905718E-005
                   152  2.847285501784023E-004
                   153 -6.817087286399219E-004
                   154  2.481356384844989E-004
                   155 -3.258446105934635E-004
                   156  4.128848573591610E-005
                   157 -2.109408324621294E-004
                   158 -3.154947325261896E-005
                   159 -3.239455656142898E-005
                   160  5.795148964656750E-004