[Molden Format]
[Atoms] AU
  N     1    7    -0.1798695400   -4.4469655000    0.1269507500        
  C     2    6    -0.0371656800   -1.7158773600    0.0889261000        
  C     3    6    -2.2780878600   -0.3820633200    0.1874730400        
  C     4    6     2.2206499400   -0.4484246300   -0.0580354600        
  C     5    6    -2.2483034300    2.2141963600    0.1060043200        
  C     6    6     2.2390584800    2.1570982000   -0.1073362800        
  C     7    6     0.0088527100    3.4907849400   -0.0416947700        
  H     8    1    -0.8662003400   -5.3560357200   -2.8768666200        
  H     9    1     1.6651533700   -5.1321256300    0.0255119400        
  H    10    1    -4.0235829900   -1.3984487700    0.3489741700        
  H    11    1     3.9641953100   -1.4807793700   -0.1500905100        
  H    12    1    -3.9929849300    3.2475419400    0.1903471700        
  H    13    1     4.0073699700    3.1497933000   -0.2029372700        
  H    14    1     0.0348466500    5.5197064600   -0.0951084700        
[5D]
[7F]
[GTO]
  1  0
   s    12 1.00
  0.114200D+05  0.172695D-04
  0.171200D+04  0.134411D-03
  0.389300D+03  0.694561D-03
  0.110000D+03  0.278531D-02
  0.355700D+02  0.863457D-02
  0.125400D+02  0.199805D-01
  0.464400D+01  0.262908D-01
  0.129300D+01 -0.243845D-01
  0.511800D+00 -0.924934D-01
  0.178700D+00 -0.339683D+00
  0.246240D-01  0.345111D+00
  0.112530D-01  0.752750D+00
   s    10 1.00
  0.114200D+05  0.523000D-03
  0.171200D+04  0.404500D-02
  0.389300D+03  0.207750D-01
  0.110000D+03  0.807269D-01
  0.355700D+02  0.233074D+00
  0.125400D+02  0.433501D+00
  0.464400D+01  0.347472D+00
  0.129300D+01  0.412620D-01
  0.511800D+00 -0.850799D-02
  0.178700D+00  0.238400D-02
   s    10 1.00
  0.114200D+05 -0.115000D-03
  0.171200D+04 -0.895000D-03
  0.389300D+03 -0.462400D-02
  0.110000D+03 -0.185280D-01
  0.355700D+02 -0.573390D-01
  0.125400D+02 -0.132076D+00
  0.464400D+01 -0.172510D+00
  0.129300D+01  0.151814D+00
  0.511800D+00  0.599944D+00
  0.178700D+00  0.387462D+00
   s     1 1.00
  0.129300D+01  0.100000D+01
   s     1 1.00
  0.178700D+00  0.100000D+01
   p     5 1.00
  0.266300D+02  0.146700D-01
  0.594800D+01  0.917640D-01
  0.174200D+01  0.298683D+00
  0.555000D+00  0.498487D+00
  0.172500D+00  0.337023D+00
   p     1 1.00
  0.174200D+01  0.100000D+01
   p     1 1.00
  0.555000D+00  0.100000D+01
   d     1 1.00
  0.165400D+01  0.100000D+01
   d     1 1.00
  0.469000D+00  0.100000D+01
   f     1 1.00
  0.109300D+01  0.100000D+01
  
  2  0
   s    10 1.00
  0.823600D+04  0.531000D-03
  0.123500D+04  0.410800D-02
  0.280800D+03  0.210870D-01
  0.792700D+02  0.818530D-01
  0.255900D+02  0.234817D+00
  0.899700D+01  0.434401D+00
  0.331900D+01  0.346129D+00
  0.905900D+00  0.393780D-01
  0.364300D+00 -0.898300D-02
  0.128500D+00  0.238500D-02
   s    10 1.00
  0.823600D+04 -0.113000D-03
  0.123500D+04 -0.878000D-03
  0.280800D+03 -0.454000D-02
  0.792700D+02 -0.181330D-01
  0.255900D+02 -0.557600D-01
  0.899700D+01 -0.126895D+00
  0.331900D+01 -0.170352D+00
  0.905900D+00  0.140382D+00
  0.364300D+00  0.598684D+00
  0.128500D+00  0.395389D+00
   s     1 1.00
  0.905900D+00  0.100000D+01
   s     1 1.00
  0.364300D+00  0.100000D+01
   p     5 1.00
  0.187100D+02  0.140310D-01
  0.413300D+01  0.868660D-01
  0.120000D+01  0.290216D+00
  0.382700D+00  0.501008D+00
  0.120900D+00  0.343406D+00
   p     1 1.00
  0.382700D+00  0.100000D+01
   p     1 1.00
  0.120900D+00  0.100000D+01
   d     1 1.00
  0.109700D+01  0.100000D+01
   d     1 1.00
  0.318000D+00  0.100000D+01
   f     1 1.00
  0.761000D+00  0.100000D+01
  
  3  0
   s    10 1.00
  0.823600D+04  0.531000D-03
  0.123500D+04  0.410800D-02
  0.280800D+03  0.210870D-01
  0.792700D+02  0.818530D-01
  0.255900D+02  0.234817D+00
  0.899700D+01  0.434401D+00
  0.331900D+01  0.346129D+00
  0.905900D+00  0.393780D-01
  0.364300D+00 -0.898300D-02
  0.128500D+00  0.238500D-02
   s    10 1.00
  0.823600D+04 -0.113000D-03
  0.123500D+04 -0.878000D-03
  0.280800D+03 -0.454000D-02
  0.792700D+02 -0.181330D-01
  0.255900D+02 -0.557600D-01
  0.899700D+01 -0.126895D+00
  0.331900D+01 -0.170352D+00
  0.905900D+00  0.140382D+00
  0.364300D+00  0.598684D+00
  0.128500D+00  0.395389D+00
   s     1 1.00
  0.905900D+00  0.100000D+01
   s     1 1.00
  0.364300D+00  0.100000D+01
   p     5 1.00
  0.187100D+02  0.140310D-01
  0.413300D+01  0.868660D-01
  0.120000D+01  0.290216D+00
  0.382700D+00  0.501008D+00
  0.120900D+00  0.343406D+00
   p     1 1.00
  0.382700D+00  0.100000D+01
   p     1 1.00
  0.120900D+00  0.100000D+01
   d     1 1.00
  0.109700D+01  0.100000D+01
   d     1 1.00
  0.318000D+00  0.100000D+01
   f     1 1.00
  0.761000D+00  0.100000D+01
  
  4  0
   s    10 1.00
  0.823600D+04  0.531000D-03
  0.123500D+04  0.410800D-02
  0.280800D+03  0.210870D-01
  0.792700D+02  0.818530D-01
  0.255900D+02  0.234817D+00
  0.899700D+01  0.434401D+00
  0.331900D+01  0.346129D+00
  0.905900D+00  0.393780D-01
  0.364300D+00 -0.898300D-02
  0.128500D+00  0.238500D-02
   s    10 1.00
  0.823600D+04 -0.113000D-03
  0.123500D+04 -0.878000D-03
  0.280800D+03 -0.454000D-02
  0.792700D+02 -0.181330D-01
  0.255900D+02 -0.557600D-01
  0.899700D+01 -0.126895D+00
  0.331900D+01 -0.170352D+00
  0.905900D+00  0.140382D+00
  0.364300D+00  0.598684D+00
  0.128500D+00  0.395389D+00
   s     1 1.00
  0.905900D+00  0.100000D+01
   s     1 1.00
  0.364300D+00  0.100000D+01
   p     5 1.00
  0.187100D+02  0.140310D-01
  0.413300D+01  0.868660D-01
  0.120000D+01  0.290216D+00
  0.382700D+00  0.501008D+00
  0.120900D+00  0.343406D+00
   p     1 1.00
  0.382700D+00  0.100000D+01
   p     1 1.00
  0.120900D+00  0.100000D+01
   d     1 1.00
  0.109700D+01  0.100000D+01
   d     1 1.00
  0.318000D+00  0.100000D+01
   f     1 1.00
  0.761000D+00  0.100000D+01
  
  5  0
   s    10 1.00
  0.823600D+04  0.531000D-03
  0.123500D+04  0.410800D-02
  0.280800D+03  0.210870D-01
  0.792700D+02  0.818530D-01
  0.255900D+02  0.234817D+00
  0.899700D+01  0.434401D+00
  0.331900D+01  0.346129D+00
  0.905900D+00  0.393780D-01
  0.364300D+00 -0.898300D-02
  0.128500D+00  0.238500D-02
   s    10 1.00
  0.823600D+04 -0.113000D-03
  0.123500D+04 -0.878000D-03
  0.280800D+03 -0.454000D-02
  0.792700D+02 -0.181330D-01
  0.255900D+02 -0.557600D-01
  0.899700D+01 -0.126895D+00
  0.331900D+01 -0.170352D+00
  0.905900D+00  0.140382D+00
  0.364300D+00  0.598684D+00
  0.128500D+00  0.395389D+00
   s     1 1.00
  0.905900D+00  0.100000D+01
   s     1 1.00
  0.364300D+00  0.100000D+01
   p     5 1.00
  0.187100D+02  0.140310D-01
  0.413300D+01  0.868660D-01
  0.120000D+01  0.290216D+00
  0.382700D+00  0.501008D+00
  0.120900D+00  0.343406D+00
   p     1 1.00
  0.382700D+00  0.100000D+01
   p     1 1.00
  0.120900D+00  0.100000D+01
   d     1 1.00
  0.109700D+01  0.100000D+01
   d     1 1.00
  0.318000D+00  0.100000D+01
   f     1 1.00
  0.761000D+00  0.100000D+01
  
  6  0
   s    10 1.00
  0.823600D+04  0.531000D-03
  0.123500D+04  0.410800D-02
  0.280800D+03  0.210870D-01
  0.792700D+02  0.818530D-01
  0.255900D+02  0.234817D+00
  0.899700D+01  0.434401D+00
  0.331900D+01  0.346129D+00
  0.905900D+00  0.393780D-01
  0.364300D+00 -0.898300D-02
  0.128500D+00  0.238500D-02
   s    10 1.00
  0.823600D+04 -0.113000D-03
  0.123500D+04 -0.878000D-03
  0.280800D+03 -0.454000D-02
  0.792700D+02 -0.181330D-01
  0.255900D+02 -0.557600D-01
  0.899700D+01 -0.126895D+00
  0.331900D+01 -0.170352D+00
  0.905900D+00  0.140382D+00
  0.364300D+00  0.598684D+00
  0.128500D+00  0.395389D+00
   s     1 1.00
  0.905900D+00  0.100000D+01
   s     1 1.00
  0.364300D+00  0.100000D+01
   p     5 1.00
  0.187100D+02  0.140310D-01
  0.413300D+01  0.868660D-01
  0.120000D+01  0.290216D+00
  0.382700D+00  0.501008D+00
  0.120900D+00  0.343406D+00
   p     1 1.00
  0.382700D+00  0.100000D+01
   p     1 1.00
  0.120900D+00  0.100000D+01
   d     1 1.00
  0.109700D+01  0.100000D+01
   d     1 1.00
  0.318000D+00  0.100000D+01
   f     1 1.00
  0.761000D+00  0.100000D+01
  
  7  0
   s    10 1.00
  0.823600D+04  0.531000D-03
  0.123500D+04  0.410800D-02
  0.280800D+03  0.210870D-01
  0.792700D+02  0.818530D-01
  0.255900D+02  0.234817D+00
  0.899700D+01  0.434401D+00
  0.331900D+01  0.346129D+00
  0.905900D+00  0.393780D-01
  0.364300D+00 -0.898300D-02
  0.128500D+00  0.238500D-02
   s    10 1.00
  0.823600D+04 -0.113000D-03
  0.123500D+04 -0.878000D-03
  0.280800D+03 -0.454000D-02
  0.792700D+02 -0.181330D-01
  0.255900D+02 -0.557600D-01
  0.899700D+01 -0.126895D+00
  0.331900D+01 -0.170352D+00
  0.905900D+00  0.140382D+00
  0.364300D+00  0.598684D+00
  0.128500D+00  0.395389D+00
   s     1 1.00
  0.905900D+00  0.100000D+01
   s     1 1.00
  0.364300D+00  0.100000D+01
   p     5 1.00
  0.187100D+02  0.140310D-01
  0.413300D+01  0.868660D-01
  0.120000D+01  0.290216D+00
  0.382700D+00  0.501008D+00
  0.120900D+00  0.343406D+00
   p     1 1.00
  0.382700D+00  0.100000D+01
   p     1 1.00
  0.120900D+00  0.100000D+01
   d     1 1.00
  0.109700D+01  0.100000D+01
   d     1 1.00
  0.318000D+00  0.100000D+01
   f     1 1.00
  0.761000D+00  0.100000D+01
  
  8  0
   s     4 1.00
  0.130100D+02  0.196850D-01
  0.196200D+01  0.137977D+00
  0.444600D+00  0.478148D+00
  0.122000D+00  0.501240D+00
   s     1 1.00
  0.122000D+00  0.100000D+01
   p     1 1.00
  0.727000D+00  0.100000D+01
  
  9  0
   s     4 1.00
  0.130100D+02  0.196850D-01
  0.196200D+01  0.137977D+00
  0.444600D+00  0.478148D+00
  0.122000D+00  0.501240D+00
   s     1 1.00
  0.122000D+00  0.100000D+01
   p     1 1.00
  0.727000D+00  0.100000D+01
  
 10  0
   s     4 1.00
  0.130100D+02  0.196850D-01
  0.196200D+01  0.137977D+00
  0.444600D+00  0.478148D+00
  0.122000D+00  0.501240D+00
   s     1 1.00
  0.122000D+00  0.100000D+01
   p     1 1.00
  0.727000D+00  0.100000D+01
  
 11  0
   s     4 1.00
  0.130100D+02  0.196850D-01
  0.196200D+01  0.137977D+00
  0.444600D+00  0.478148D+00
  0.122000D+00  0.501240D+00
   s     1 1.00
  0.122000D+00  0.100000D+01
   p     1 1.00
  0.727000D+00  0.100000D+01
  
 12  0
   s     4 1.00
  0.130100D+02  0.196850D-01
  0.196200D+01  0.137977D+00
  0.444600D+00  0.478148D+00
  0.122000D+00  0.501240D+00
   s     1 1.00
  0.122000D+00  0.100000D+01
   p     1 1.00
  0.727000D+00  0.100000D+01
  
 13  0
   s     4 1.00
  0.130100D+02  0.196850D-01
  0.196200D+01  0.137977D+00
  0.444600D+00  0.478148D+00
  0.122000D+00  0.501240D+00
   s     1 1.00
  0.122000D+00  0.100000D+01
   p     1 1.00
  0.727000D+00  0.100000D+01
  
 14  0
   s     4 1.00
  0.130100D+02  0.196850D-01
  0.196200D+01  0.137977D+00
  0.444600D+00  0.478148D+00
  0.122000D+00  0.501240D+00
   s     1 1.00
  0.122000D+00  0.100000D+01
   p     1 1.00
  0.727000D+00  0.100000D+01
  
[MO]
 Sym= __1_a__
 Ene=  0.000000000000000E+000
 Spin= Alpha
 Occup=    2.00000000000000     
                     1  2.358526985024950E-004
                     2  0.998286519664296     
                     3 -1.743597552763150E-003
                     4  1.657808857503700E-003
                     5  8.025786929802490E-003
                     6  4.884112061029770E-003
                     7  6.830897099512450E-003
                     8 -2.090727708848000E-003
                     9 -8.955739446068111E-004
                    10 -1.175078172800560E-003
                    11  2.652489759948750E-004
                    12 -3.551303917104630E-003
                    13 -2.746508387722840E-003
                    14  1.423856014121660E-003
                    15 -6.427917380161645E-005
                    16 -4.030918035215950E-005
                    17 -1.180256206961720E-005
                    18 -3.694087919998840E-005
                    19 -7.253729551306950E-005
                    20  2.469695968762145E-006
                    21 -4.960215542646950E-005
                    22 -1.635103843044070E-004
                    23 -2.247914798521460E-004
                    24  5.956145008079350E-004
                    25 -1.211010141131189E-005
                    26 -3.937722644251988E-005
                    27 -4.271882797491895E-005
                    28  9.779774196165620E-006
                    29 -2.418058359900210E-006
                    30  2.131067673116794E-005
                    31 -9.449134486923671E-005
                    32 -4.873638545132130E-004
                    33 -4.648973252661130E-004
                    34  1.977349776037910E-004
                    35  5.311620147262650E-004
                    36 -2.348997388771970E-004
                    37 -2.480676461063760E-003
                    38 -1.419295151634280E-004
                    39  9.897675711232710E-004
                    40  1.691728380854380E-004
                    41 -6.966423023194610E-005
                    42 -3.215152246520200E-003
                    43  5.682994984931970E-003
                    44  5.542333567507210E-004
                    45 -5.191377602645129E-005
                    46  4.234061258949720E-006
                    47  2.638787644788740E-005
                    48 -2.131744206735800E-004
                    49  3.359116229981750E-005
                    50 -2.038236449182033E-004
                    51 -5.581269206279350E-005
                    52 -2.165097299821620E-004
                    53  5.204061104814400E-004
                    54  9.911296027533981E-004
                    55  7.658809815866410E-006
                    56 -1.476321745080000E-005
                    57 -2.221792500480358E-005
                    58 -1.369284280421894E-005
                    59  4.707035988022840E-008
                    60  4.203269191209282E-005
                    61 -2.294121642453958E-005
                    62 -7.705426708975590E-004
                    63 -2.897211202333750E-003
                    64 -7.386547482281920E-005
                    65  2.844055227804450E-003
                    66 -4.871697234040960E-004
                    67  1.306932427337150E-004
                    68 -1.354486837353000E-004
                    69  6.923511144232130E-004
                    70  1.016857393149310E-003
                    71 -3.829061512699470E-005
                    72 -1.626601875553070E-003
                    73  1.243122831004680E-003
                    74 -9.243369446665290E-005
                    75 -4.330464977328298E-005
                    76  1.120168024972810E-005
                    77 -2.566384254264030E-006
                    78 -9.050843175086280E-005
                    79 -3.430208520130860E-005
                    80 -1.865715408091049E-004
                    81 -6.488572811663510E-005
                    82 -2.601913632828590E-005
                    83  3.676558420451560E-004
                    84  1.574359436025080E-004
                    85 -1.743015502544898E-006
                    86 -1.842983359586375E-005
                    87 -4.471470202460513E-005
                    88  1.581146047569138E-005
                    89  6.652812722312510E-006
                    90 -2.051838017840209E-005
                    91 -1.617747025665320E-004
                    92 -1.254230936114010E-004
                    93 -5.999300436945980E-004
                    94  3.136406109537980E-004
                    95 -8.854053979280510E-004
                    96  2.066332631848820E-004
                    97  2.278296183501750E-004
                    98 -1.696148101080930E-004
                    99  6.078786462018660E-004
                   100  4.222164414333430E-004
                   101 -2.031076143991800E-005
                   102  3.837436415417490E-004
                   103 -2.498068642466280E-003
                   104 -1.418294391874280E-004
                   105  4.932392757374728E-006
                   106 -3.581558954942530E-006
                   107 -1.522099427544560E-006
                   108 -6.728635746917321E-005
                   109 -2.428643917316460E-005
                   110  2.415893852258138E-004
                   111  5.589704091617510E-005
                   112  2.219702220852620E-005
                   113 -8.293128602491780E-005
                   114 -1.598133267559990E-004
                   115 -2.617524933012888E-006
                   116 -2.377777834467297E-005
                   117 -2.857905136240815E-005
                   118  6.621547342795720E-006
                   119 -9.572114834691239E-006
                   120 -7.904130389536818E-006
                   121  3.024278422987308E-005
                   122 -3.233951038754290E-004
                   123 -8.564347832436790E-004
                   124  1.370731960819070E-004
                   125  8.564672988378910E-004
                   126 -4.657642190594980E-005
                   127 -3.985866833318530E-004
                   128 -8.984481447638780E-005
                   129  3.069173362453700E-004
                   130  6.851744750003370E-004
                   131 -2.276262807702560E-005
                   132  2.783928653436190E-004
                   133  2.878945278790750E-003
                   134 -2.664403229815710E-005
                   135  2.204578807672347E-006
                   136 -2.709328551723050E-006
                   137  5.979441977716030E-006
                   138  4.648298250839140E-005
                   139 -9.475930235652941E-007
                   140  2.405855275055541E-004
                   141 -2.006729850049050E-005
                   142 -9.788892327902280E-006
                   143  4.581002306139700E-004
                   144  4.011115547501690E-004
                   145 -7.993996063019376E-006
                   146 -1.288289154271664E-005
                   147 -8.180034901674843E-005
                   148  8.621952733902920E-007
                   149 -6.242729123891000E-006
                   150 -3.923720313753684E-005
                   151 -5.127851792178232E-005
                   152 -1.542119228486220E-004
                   153 -3.719655956734160E-004
                   154 -2.191639505009230E-005
                   155  4.984023006926790E-004
                   156 -3.818183682617080E-005
                   157 -2.310557263547320E-004
                   158 -9.650381508646440E-005
                   159  1.551824987859330E-004
                   160 -7.792785252676040E-005
                   161 -2.628507399238950E-007
                   162  1.016705795137000E-003
                   163 -8.732997606039980E-004
                   164  3.794203083588520E-005
                   165 -6.370045868030442E-006
                   166  1.510018134111760E-006
                   167  3.061185132168470E-006
                   168 -2.107885308018040E-005
                   169  1.175201247553150E-005
                   170  3.269282154435521E-005
                   171  8.840011489439530E-006
                   172 -3.270903898452870E-006
                   173 -2.078933808551060E-005
                   174 -4.038640748147830E-005
                   175 -9.113671972657010E-007
                   176  3.571785888090935E-006
                   177 -6.454773614381398E-006
                   178  1.512231526483030E-008
                   179  3.342021319948940E-006
                   180 -1.827229417370091E-005
                   181 -7.835536951620212E-006
                   182 -1.543484185078730E-004
                   183 -4.779899992011940E-004
                   184  5.684307156722380E-005
                   185  1.106654900471140E-004
                   186 -7.591515133991130E-005
                   187 -3.220760662195480E-005
                   188 -8.401743697411679E-005
                   189  3.777522984729990E-004
                   190  1.503114716702840E-004
                   191 -5.426773604132710E-006
                   192  2.063222352045220E-003
                   193 -4.933492640900741E-004
                   194 -1.122332408399030E-004
                   195  4.338151308201944E-006
                   196  4.714080724929910E-007
                   197 -1.939231167166530E-008
                   198 -8.370855164089360E-006
                   199  6.327543303449900E-006
                   200  2.476590492914599E-005
                   201  1.670239444395410E-005
                   202  2.056768388649030E-005
                   203 -1.554484114955968E-004
                   204 -3.060792765349710E-004
                   205 -2.582505419894812E-006
                   206 -1.547070544860702E-005
                   207 -6.692685374950879E-006
                   208  1.642942203221444E-006
                   209 -2.173683411004890E-006
                   210  1.661354939826379E-005
                   211  8.668327014860107E-006
                   212 -2.089481576575630E-004
                   213  9.342071140740000E-006
                   214 -6.814551105462199E-005
                   215 -3.365606255073300E-006
                   216 -4.476463720355070E-006
                   217  3.431346808006600E-004
                   218 -1.440728026998060E-003
                   219 -3.778322158890280E-004
                   220  8.231865284506521E-005
                   221  8.343353440729860E-005
                   222 -4.272798382815650E-004
                   223 -3.059968814598090E-004
                   224  5.588181900813350E-005
                   225 -9.462429381499839E-005
                   226 -7.616071461735860E-007
                   227 -1.093088058879660E-004
                   228 -6.104633268248870E-004
                   229 -6.874287509097400E-005
                   230 -1.270932291993900E-005
                   231  3.982451866518190E-006
                   232  5.135637743727920E-005
                   233 -8.114762008704560E-004
                   234  1.086105464440650E-005
                   235 -3.661452794736320E-006
                   236 -4.688893505358790E-006
                   237 -8.346097283831310E-005
                   238 -3.535664973471230E-004
                   239  1.292135470373400E-005
                   240  1.660339529861170E-005
                   241 -4.146512360565640E-006
                   242 -2.783337688746310E-005
                   243  1.417638800160930E-004
                   244  8.212945895296110E-007
                   245  3.231367931879240E-005
                   246 -2.120155683468470E-006
 Sym= __2_a__
 Ene=  0.000000000000000E+000
 Spin= Alpha
 Occup=    2.00000000000000     
                     1 -9.702278378831220E-006
                     2 -1.356604111163530E-004
                     3  1.858457162209250E-003
                     4 -4.157244528230730E-006
                     5  1.117895988991020E-003
                     6 -2.557728748811050E-004
                     7  1.941761692796600E-003
                     8 -2.277081529213020E-004
                     9 -4.053626587539630E-005
                    10 -1.271891335716850E-004
                    11  5.732791653465240E-005
                    12  2.374691751722860E-005
                    13  4.185821168702170E-005
                    14  6.239669287293110E-005
                    15 -3.879591339857519E-006
                    16  9.068726177070950E-007
                    17 -8.447077163843039E-006
                    18 -8.120890063447300E-005
                    19  2.174363375289450E-005
                    20 -1.673492815372161E-004
                    21 -1.724946600068950E-005
                    22 -2.582582283125920E-006
                    23  1.128372868659960E-005
                    24 -7.018840502881630E-005
                    25  1.411807263356515E-006
                    26 -1.760374176524926E-005
                    27  7.046647163565925E-005
                    28 -7.820701072419661E-006
                    29 -5.016804911098680E-006
                    30 -6.260179638423751E-005
                    31  1.478048414992798E-004
                    32   1.00072902239761     
                    33  8.996700909650549E-003
                    34  2.969256921384560E-003
                    35 -8.645260001684930E-003
                    36  5.862959778930810E-005
                    37 -2.019640072895240E-003
                    38  1.321070770173270E-004
                    39 -1.815999548947290E-004
                    40  6.011265302207680E-004
                    41 -1.793822597752680E-004
                    42 -9.549222345570910E-005
                    43  3.050723322754680E-003
                    44 -1.555860356481540E-004
                    45 -4.994795248434390E-004
                    46 -4.775675075430560E-005
                    47 -5.852240839842710E-007
                    48  1.147577304053756E-004
                    49  2.935064748824880E-005
                    50  6.855479526629689E-004
                    51  1.349253778892680E-004
                    52 -1.226281006998400E-005
                    53 -1.101093305709364E-003
                    54 -2.322415373241150E-004
                    55 -1.369264880578113E-005
                    56  7.079107067432283E-006
                    57  6.029335088960342E-006
                    58 -1.039731342674488E-005
                    59 -1.704271487472930E-005
                    60 -2.332534215844930E-005
                    61  3.124471021378714E-004
                    62  1.779363926473560E-002
                    63 -1.865365290208360E-003
                    64 -3.069810157430830E-004
                    65  3.133233402460940E-003
                    66  2.402218210908200E-004
                    67 -3.364568322962920E-005
                    68 -9.461634772775730E-005
                    69  4.192186383283000E-004
                    70 -1.090995698116810E-004
                    71 -8.823658208561560E-006
                    72 -1.858565566201650E-003
                    73  2.629183363875450E-004
                    74  1.357747707610070E-004
                    75  3.567000329103275E-005
                    76 -1.373835991697820E-006
                    77  1.560173962665300E-006
                    78  9.380718328206940E-006
                    79  2.797478670077420E-005
                    80 -4.643830896670752E-004
                    81  4.233721432228060E-005
                    82 -2.953669155175030E-005
                    83 -8.831119091824440E-004
                    84 -4.932252531196140E-004
                    85  6.032223306528314E-006
                    86  4.687663503314555E-005
                    87 -4.934170486730083E-005
                    88  1.079205663995652E-005
                    89 -1.289333221837180E-005
                    90  3.254201654449150E-005
                    91  1.056396462103527E-004
                    92  2.152562842511690E-002
                    93 -1.807194823420190E-003
                    94 -3.557149424462010E-004
                    95  3.560920880105310E-003
                    96 -2.516963328829930E-004
                    97 -1.170830326943870E-004
                    98 -6.627188903623520E-005
                    99 -7.229803693500110E-004
                   100 -1.397113208741280E-004
                   101  6.424106533461810E-005
                   102  1.767482597358610E-003
                   103  2.919410519538810E-005
                   104 -6.648246591833460E-005
                   105  2.297026787983913E-005
                   106  5.102284950750740E-006
                   107  9.759261400973770E-007
                   108  8.192033553095000E-006
                   109 -1.623269367006000E-005
                   110 -4.539071547733867E-004
                   111 -4.272356173694960E-005
                   112 -6.444536855489300E-005
                   113 -6.948271940224220E-004
                   114  5.428817095657371E-004
                   115 -5.586928346901694E-006
                   116 -5.097991952596851E-005
                   117 -5.624808218405007E-005
                   118 -2.012820044203900E-006
                   119 -7.035113810622800E-006
                   120 -3.291125626175096E-005
                   121  8.098266467756064E-005
                   122  1.128448483551930E-004
                   123 -6.832241606527639E-004
                   124  2.329986442215050E-004
                   125 -3.204719182620110E-004
                   126 -6.100749735712260E-005
                   127 -2.413294882657180E-004
                   128 -2.150195115595310E-005
                   129  1.006903096087220E-004
                   130  6.205404555765620E-004
                   131 -2.557505823631130E-005
                   132  3.903145353705670E-004
                   133  6.387293797219890E-004
                   134 -3.919140784718350E-005
                   135  2.800503667509915E-005
                   136  5.533210288674180E-007
                   137  3.659905960748240E-007
                   138  1.492884868173628E-005
                   139  4.474448577212070E-005
                   140  1.105425652023865E-004
                   141 -4.875419199526390E-006
                   142  3.076324002537360E-005
                   143  2.905371494689120E-004
                   144 -2.710687509168940E-004
                   145 -2.361805342277344E-006
                   146 -4.193818868354270E-006
                   147 -2.082687901173200E-005
                   148 -1.621744332625720E-006
                   149 -1.116350482945130E-006
                   150 -1.684723443605800E-005
                   151  1.315028192272391E-005
                   152  2.847285400680120E-004
                   153 -6.817087286729710E-004
                   154  2.481356386125290E-004
                   155 -3.258446117781720E-004
                   156  4.128848572171530E-005
                   157 -2.109408315355360E-004
                   158 -3.154947327851890E-005
                   159 -3.239455650994140E-005
                   160  5.795148966373260E-004