[Molden Format]
[Atoms] AU
  N     1    7    -0.0849574700   -4.3403702500    0.0000000000        
  C     2    6     0.0316738800   -1.8319748800    0.0000000000        
  C     3    6    -2.3014294200   -0.4318054000    0.0000000000        
  C     4    6     2.3427635300   -0.3999097600    0.0000000000        
  C     5    6    -2.2819920200    2.1503183600    0.0000000000        
  C     6    6     2.2982049800    2.1819453300    0.0000000000        
  C     7    6    -0.0010235900    3.4868675600    0.0000000000        
  H     8    1    -2.8459285200   -5.9827515300    0.0000000000        
  H     9    1     1.6923205700   -5.1201520800    0.0000000000        
  H    10    1    -4.0332900300   -1.4761037300    0.0000000000        
  H    11    1     4.1061551800   -1.4027933700    0.0000000000        
  H    12    1    -4.0354076000    3.1716263900    0.0000000000        
  H    13    1     4.0392645100    3.2241875800    0.0000000000        
  H    14    1    -0.0133668900    5.5143579500    0.0000000000        
[5D]
[7F]
[GTO]
  1  0
   s    12 1.00
  0.114200D+05  0.172695D-04
  0.171200D+04  0.134411D-03
  0.389300D+03  0.694561D-03
  0.110000D+03  0.278531D-02
  0.355700D+02  0.863457D-02
  0.125400D+02  0.199805D-01
  0.464400D+01  0.262908D-01
  0.129300D+01 -0.243845D-01
  0.511800D+00 -0.924934D-01
  0.178700D+00 -0.339683D+00
  0.246240D-01  0.345111D+00
  0.112530D-01  0.752750D+00
   s    10 1.00
  0.114200D+05  0.523000D-03
  0.171200D+04  0.404500D-02
  0.389300D+03  0.207750D-01
  0.110000D+03  0.807269D-01
  0.355700D+02  0.233074D+00
  0.125400D+02  0.433501D+00
  0.464400D+01  0.347472D+00
  0.129300D+01  0.412620D-01
  0.511800D+00 -0.850799D-02
  0.178700D+00  0.238400D-02
   s    10 1.00
  0.114200D+05 -0.115000D-03
  0.171200D+04 -0.895000D-03
  0.389300D+03 -0.462400D-02
  0.110000D+03 -0.185280D-01
  0.355700D+02 -0.573390D-01
  0.125400D+02 -0.132076D+00
  0.464400D+01 -0.172510D+00
  0.129300D+01  0.151814D+00
  0.511800D+00  0.599944D+00
  0.178700D+00  0.387462D+00
   s     1 1.00
  0.129300D+01  0.100000D+01
   s     1 1.00
  0.178700D+00  0.100000D+01
   p     5 1.00
  0.266300D+02  0.146700D-01
  0.594800D+01  0.917640D-01
  0.174200D+01  0.298683D+00
  0.555000D+00  0.498487D+00
  0.172500D+00  0.337023D+00
   p     1 1.00
  0.174200D+01  0.100000D+01
   p     1 1.00
  0.555000D+00  0.100000D+01
   d     1 1.00
  0.165400D+01  0.100000D+01
   d     1 1.00
  0.469000D+00  0.100000D+01
   f     1 1.00
  0.109300D+01  0.100000D+01
  
  2  0
   s    10 1.00
  0.823600D+04  0.531000D-03
  0.123500D+04  0.410800D-02
  0.280800D+03  0.210870D-01
  0.792700D+02  0.818530D-01
  0.255900D+02  0.234817D+00
  0.899700D+01  0.434401D+00
  0.331900D+01  0.346129D+00
  0.905900D+00  0.393780D-01
  0.364300D+00 -0.898300D-02
  0.128500D+00  0.238500D-02
   s    10 1.00
  0.823600D+04 -0.113000D-03
  0.123500D+04 -0.878000D-03
  0.280800D+03 -0.454000D-02
  0.792700D+02 -0.181330D-01
  0.255900D+02 -0.557600D-01
  0.899700D+01 -0.126895D+00
  0.331900D+01 -0.170352D+00
  0.905900D+00  0.140382D+00
  0.364300D+00  0.598684D+00
  0.128500D+00  0.395389D+00
   s     1 1.00
  0.905900D+00  0.100000D+01
   s     1 1.00
  0.364300D+00  0.100000D+01
   p     5 1.00
  0.187100D+02  0.140310D-01
  0.413300D+01  0.868660D-01
  0.120000D+01  0.290216D+00
  0.382700D+00  0.501008D+00
  0.120900D+00  0.343406D+00
   p     1 1.00
  0.382700D+00  0.100000D+01
   p     1 1.00
  0.120900D+00  0.100000D+01
   d     1 1.00
  0.109700D+01  0.100000D+01
   d     1 1.00
  0.318000D+00  0.100000D+01
   f     1 1.00
  0.761000D+00  0.100000D+01
  
  3  0
   s    10 1.00
  0.823600D+04  0.531000D-03
  0.123500D+04  0.410800D-02
  0.280800D+03  0.210870D-01
  0.792700D+02  0.818530D-01
  0.255900D+02  0.234817D+00
  0.899700D+01  0.434401D+00
  0.331900D+01  0.346129D+00
  0.905900D+00  0.393780D-01
  0.364300D+00 -0.898300D-02
  0.128500D+00  0.238500D-02
   s    10 1.00
  0.823600D+04 -0.113000D-03
  0.123500D+04 -0.878000D-03
  0.280800D+03 -0.454000D-02
  0.792700D+02 -0.181330D-01
  0.255900D+02 -0.557600D-01
  0.899700D+01 -0.126895D+00
  0.331900D+01 -0.170352D+00
  0.905900D+00  0.140382D+00
  0.364300D+00  0.598684D+00
  0.128500D+00  0.395389D+00
   s     1 1.00
  0.905900D+00  0.100000D+01
   s     1 1.00
  0.364300D+00  0.100000D+01
   p     5 1.00
  0.187100D+02  0.140310D-01
  0.413300D+01  0.868660D-01
  0.120000D+01  0.290216D+00
  0.382700D+00  0.501008D+00
  0.120900D+00  0.343406D+00
   p     1 1.00
  0.382700D+00  0.100000D+01
   p     1 1.00
  0.120900D+00  0.100000D+01
   d     1 1.00
  0.109700D+01  0.100000D+01
   d     1 1.00
  0.318000D+00  0.100000D+01
   f     1 1.00
  0.761000D+00  0.100000D+01
  
  4  0
   s    10 1.00
  0.823600D+04  0.531000D-03
  0.123500D+04  0.410800D-02
  0.280800D+03  0.210870D-01
  0.792700D+02  0.818530D-01
  0.255900D+02  0.234817D+00
  0.899700D+01  0.434401D+00
  0.331900D+01  0.346129D+00
  0.905900D+00  0.393780D-01
  0.364300D+00 -0.898300D-02
  0.128500D+00  0.238500D-02
   s    10 1.00
  0.823600D+04 -0.113000D-03
  0.123500D+04 -0.878000D-03
  0.280800D+03 -0.454000D-02
  0.792700D+02 -0.181330D-01
  0.255900D+02 -0.557600D-01
  0.899700D+01 -0.126895D+00
  0.331900D+01 -0.170352D+00
  0.905900D+00  0.140382D+00
  0.364300D+00  0.598684D+00
  0.128500D+00  0.395389D+00
   s     1 1.00
  0.905900D+00  0.100000D+01
   s     1 1.00
  0.364300D+00  0.100000D+01
   p     5 1.00
  0.187100D+02  0.140310D-01
  0.413300D+01  0.868660D-01
  0.120000D+01  0.290216D+00
  0.382700D+00  0.501008D+00
  0.120900D+00  0.343406D+00
   p     1 1.00
  0.382700D+00  0.100000D+01
   p     1 1.00
  0.120900D+00  0.100000D+01
   d     1 1.00
  0.109700D+01  0.100000D+01
   d     1 1.00
  0.318000D+00  0.100000D+01
   f     1 1.00
  0.761000D+00  0.100000D+01
  
  5  0
   s    10 1.00
  0.823600D+04  0.531000D-03
  0.123500D+04  0.410800D-02
  0.280800D+03  0.210870D-01
  0.792700D+02  0.818530D-01
  0.255900D+02  0.234817D+00
  0.899700D+01  0.434401D+00
  0.331900D+01  0.346129D+00
  0.905900D+00  0.393780D-01
  0.364300D+00 -0.898300D-02
  0.128500D+00  0.238500D-02
   s    10 1.00
  0.823600D+04 -0.113000D-03
  0.123500D+04 -0.878000D-03
  0.280800D+03 -0.454000D-02
  0.792700D+02 -0.181330D-01
  0.255900D+02 -0.557600D-01
  0.899700D+01 -0.126895D+00
  0.331900D+01 -0.170352D+00
  0.905900D+00  0.140382D+00
  0.364300D+00  0.598684D+00
  0.128500D+00  0.395389D+00
   s     1 1.00
  0.905900D+00  0.100000D+01
   s     1 1.00
  0.364300D+00  0.100000D+01
   p     5 1.00
  0.187100D+02  0.140310D-01
  0.413300D+01  0.868660D-01
  0.120000D+01  0.290216D+00
  0.382700D+00  0.501008D+00
  0.120900D+00  0.343406D+00
   p     1 1.00
  0.382700D+00  0.100000D+01
   p     1 1.00
  0.120900D+00  0.100000D+01
   d     1 1.00
  0.109700D+01  0.100000D+01
   d     1 1.00
  0.318000D+00  0.100000D+01
   f     1 1.00
  0.761000D+00  0.100000D+01
  
  6  0
   s    10 1.00
  0.823600D+04  0.531000D-03
  0.123500D+04  0.410800D-02
  0.280800D+03  0.210870D-01
  0.792700D+02  0.818530D-01
  0.255900D+02  0.234817D+00
  0.899700D+01  0.434401D+00
  0.331900D+01  0.346129D+00
  0.905900D+00  0.393780D-01
  0.364300D+00 -0.898300D-02
  0.128500D+00  0.238500D-02
   s    10 1.00
  0.823600D+04 -0.113000D-03
  0.123500D+04 -0.878000D-03
  0.280800D+03 -0.454000D-02
  0.792700D+02 -0.181330D-01
  0.255900D+02 -0.557600D-01
  0.899700D+01 -0.126895D+00
  0.331900D+01 -0.170352D+00
  0.905900D+00  0.140382D+00
  0.364300D+00  0.598684D+00
  0.128500D+00  0.395389D+00
   s     1 1.00
  0.905900D+00  0.100000D+01
   s     1 1.00
  0.364300D+00  0.100000D+01
   p     5 1.00
  0.187100D+02  0.140310D-01
  0.413300D+01  0.868660D-01
  0.120000D+01  0.290216D+00
  0.382700D+00  0.501008D+00
  0.120900D+00  0.343406D+00
   p     1 1.00
  0.382700D+00  0.100000D+01
   p     1 1.00
  0.120900D+00  0.100000D+01
   d     1 1.00
  0.109700D+01  0.100000D+01
   d     1 1.00
  0.318000D+00  0.100000D+01
   f     1 1.00
  0.761000D+00  0.100000D+01
  
  7  0
   s    10 1.00
  0.823600D+04  0.531000D-03
  0.123500D+04  0.410800D-02
  0.280800D+03  0.210870D-01
  0.792700D+02  0.818530D-01
  0.255900D+02  0.234817D+00
  0.899700D+01  0.434401D+00
  0.331900D+01  0.346129D+00
  0.905900D+00  0.393780D-01
  0.364300D+00 -0.898300D-02
  0.128500D+00  0.238500D-02
   s    10 1.00
  0.823600D+04 -0.113000D-03
  0.123500D+04 -0.878000D-03
  0.280800D+03 -0.454000D-02
  0.792700D+02 -0.181330D-01
  0.255900D+02 -0.557600D-01
  0.899700D+01 -0.126895D+00
  0.331900D+01 -0.170352D+00
  0.905900D+00  0.140382D+00
  0.364300D+00  0.598684D+00
  0.128500D+00  0.395389D+00
   s     1 1.00
  0.905900D+00  0.100000D+01
   s     1 1.00
  0.364300D+00  0.100000D+01
   p     5 1.00
  0.187100D+02  0.140310D-01
  0.413300D+01  0.868660D-01
  0.120000D+01  0.290216D+00
  0.382700D+00  0.501008D+00
  0.120900D+00  0.343406D+00
   p     1 1.00
  0.382700D+00  0.100000D+01
   p     1 1.00
  0.120900D+00  0.100000D+01
   d     1 1.00
  0.109700D+01  0.100000D+01
   d     1 1.00
  0.318000D+00  0.100000D+01
   f     1 1.00
  0.761000D+00  0.100000D+01
  
  8  0
   s     4 1.00
  0.130100D+02  0.196850D-01
  0.196200D+01  0.137977D+00
  0.444600D+00  0.478148D+00
  0.122000D+00  0.501240D+00
   s     1 1.00
  0.122000D+00  0.100000D+01
   p     1 1.00
  0.727000D+00  0.100000D+01
  
  9  0
   s     4 1.00
  0.130100D+02  0.196850D-01
  0.196200D+01  0.137977D+00
  0.444600D+00  0.478148D+00
  0.122000D+00  0.501240D+00
   s     1 1.00
  0.122000D+00  0.100000D+01
   p     1 1.00
  0.727000D+00  0.100000D+01
  
 10  0
   s     4 1.00
  0.130100D+02  0.196850D-01
  0.196200D+01  0.137977D+00
  0.444600D+00  0.478148D+00
  0.122000D+00  0.501240D+00
   s     1 1.00
  0.122000D+00  0.100000D+01
   p     1 1.00
  0.727000D+00  0.100000D+01
  
 11  0
   s     4 1.00
  0.130100D+02  0.196850D-01
  0.196200D+01  0.137977D+00
  0.444600D+00  0.478148D+00
  0.122000D+00  0.501240D+00
   s     1 1.00
  0.122000D+00  0.100000D+01
   p     1 1.00
  0.727000D+00  0.100000D+01
  
 12  0
   s     4 1.00
  0.130100D+02  0.196850D-01
  0.196200D+01  0.137977D+00
  0.444600D+00  0.478148D+00
  0.122000D+00  0.501240D+00
   s     1 1.00
  0.122000D+00  0.100000D+01
   p     1 1.00
  0.727000D+00  0.100000D+01
  
 13  0
   s     4 1.00
  0.130100D+02  0.196850D-01
  0.196200D+01  0.137977D+00
  0.444600D+00  0.478148D+00
  0.122000D+00  0.501240D+00
   s     1 1.00
  0.122000D+00  0.100000D+01
   p     1 1.00
  0.727000D+00  0.100000D+01
  
 14  0
   s     4 1.00
  0.130100D+02  0.196850D-01
  0.196200D+01  0.137977D+00
  0.444600D+00  0.478148D+00
  0.122000D+00  0.501240D+00
   s     1 1.00
  0.122000D+00  0.100000D+01
   p     1 1.00
  0.727000D+00  0.100000D+01
  
[MO]
 Sym= __1_a__
 Ene=  0.000000000000000E+000
 Spin= Alpha
 Occup=    2.00000000000000     
                     1  7.228329749042310E-005
                     2  0.998355929597474     
                     3  2.926683860937360E-003
                     4  1.706832485943220E-003
                     5  5.024438771797940E-003
                     6  3.414977110093020E-003
                     7  6.305257863258560E-003
                     8  4.705724167730180E-012
                     9 -6.000704987844169E-004
                    10 -5.630807142278860E-004
                    11 -8.165701455457080E-012
                    12 -2.362335393743720E-003
                    13 -1.551976052309800E-003
                    14  7.134053047817920E-012
                    15 -1.232779435645596E-004
                    16  1.247734227192800E-012
                    17  2.348179041727150E-014
                    18 -1.861334843395532E-004
                    19 -7.308992881286630E-005
                    20  1.177440108333981E-004
                    21  5.420860627629320E-013
                    22 -6.111951501557371E-014
                    23 -3.424130158830280E-004
                    24  5.329819438988050E-004
                    25 -3.642899849206271E-013
                    26 -1.281315617590415E-005
                    27 -6.448849153496263E-005
                    28  2.346377907159500E-013
                    29  1.638464157722010E-012
                    30  3.442374430675370E-005
                    31 -1.528024525845793E-004
                    32 -3.812277636821750E-004
                    33  1.427133101453920E-003
                    34  3.186979376334800E-004
                    35 -4.215092804682700E-004
                    36 -2.996463316695410E-004
                    37 -5.154038575550080E-003
                    38  1.534512775576880E-011
                    39  4.427535303992910E-004
                    40  5.155374566224780E-004
                    41 -4.609776409516990E-012
                    42 -2.072083288290500E-003
                    43  5.473930249170190E-003
                    44 -1.463789953837900E-012
                    45 -1.668072076034935E-005
                    46  2.963748212559450E-012
                    47 -3.654182452268620E-012
                    48 -2.332082672794400E-004
                    49 -1.047429299955860E-005
                    50 -2.637110149089948E-004
                    51 -2.098904803125190E-012
                    52  8.842353494673980E-012
                    53  5.092395840201320E-005
                    54  7.992319315285680E-004
                    55 -1.079339896735042E-012
                    56 -1.217275659748422E-005
                    57 -5.517269845103274E-005
                    58 -5.694256782027880E-013
                    59 -1.459325737120560E-012
                    60  3.641492422088871E-005
                    61 -1.236056103832624E-004
                    62 -4.701462131656550E-004
                    63 -2.254613148786330E-003
                    64 -8.726568742753310E-005
                    65  2.033833651895950E-003
                    66 -7.052260205772540E-004
                    67  5.522913386609510E-004
                    68  6.951396884780220E-012
                    69  4.018668644693660E-004
                    70  8.382845144918760E-004
                    71 -9.285067733375119E-012
                    72 -1.908313404836060E-003
                    73  8.645719967388930E-004
                    74 -5.387205566412570E-012
                    75 -3.986009634613835E-005
                    76 -9.775508714611890E-013
                    77  2.655405083292760E-012
                    78 -8.087450796159040E-005
                    79 -2.611301870172400E-005
                    80 -1.224140390770732E-004
                    81 -1.231725058100070E-013
                    82 -7.652030250946550E-013
                    83  2.739336655094760E-005
                    84  9.168588671503330E-005
                    85 -3.839726622127870E-012
                    86  1.378113109515024E-005
                    87 -5.061714777575177E-005
                    88  1.664356128184866E-012
                    89 -1.300978321729740E-012
                    90 -2.292934700922370E-005
                    91 -1.490543812365421E-004
                    92 -1.785473048921100E-004
                    93 -1.257411363056910E-003
                    94  2.064814516768710E-004
                    95 -1.785141275049040E-004
                    96  6.122299236517840E-004
                    97  7.661055090121830E-004
                    98  5.108163568603780E-012
                    99  4.085826406586020E-004
                   100  3.678057660726460E-004
                   101 -3.064834751364930E-012
                   102  4.590282898549700E-004
                   103 -1.689182226936140E-003
                   104 -2.156458678329480E-012
                   105  1.258692095571293E-006
                   106 -1.356160672821510E-012
                   107  2.975762538036650E-012
                   108 -8.256586260264560E-005
                   109 -2.092526611343340E-005
                   110  9.578938853997461E-005
                   111  3.987197570889000E-012
                   112 -4.636871128649520E-012
                   113 -1.634368786214502E-004
                   114 -3.268244052393900E-005
                   115  8.171450918446527E-013
                   116 -2.676628359584007E-005
                   117 -2.658971872183913E-005
                   118  1.140103263367076E-012
                   119 -5.605434805835010E-013
                   120 -1.763922258257906E-005
                   121 -2.777267902165891E-005
                   122 -2.536550804022690E-004
                   123 -4.734197815606590E-004
                   124  1.731400131623680E-004
                   125  3.062248117394240E-004
                   126 -1.378047967382110E-005
                   127 -5.989025262205950E-004
                   128  3.465396830630930E-012
                   129  1.847608123722580E-004
                   130  6.420698322459380E-004
                   131  5.063271766524920E-012
                   132  5.751810723395650E-004
                   133  2.067960219577730E-003
                   134 -1.086427874250070E-012
                   135  1.430429550078266E-005
                   136  1.083149328722750E-012
                   137  2.393737626410100E-013
                   138  3.906496881015700E-005
                   139  2.168843887884880E-006
                   140  1.841928373508157E-004
                   141 -3.278587548364620E-012
                   142 -5.218684511872690E-012
                   143  3.790016811378220E-004
                   144  2.386554715985580E-004
                   145  8.202897671541493E-014
                   146 -9.336887802342523E-006
                   147 -6.023667185350820E-005
                   148  1.436654633994198E-012
                   149 -4.189267686802680E-012
                   150 -1.660572337146598E-005
                   151 -4.538078408424102E-005
                   152 -1.586972066942760E-004
                   153 -1.695579105907140E-004
                   154  5.600375094932440E-005
                   155  2.532493912614760E-004
                   156 -2.896966824902470E-005
                   157 -5.340953824308570E-004
                   158 -9.934783772193981E-013
                   159  3.839727451120440E-005
                   160  6.121528479974459E-005
                   161  6.841523106682710E-012
                   162  7.979294476353040E-004
                   163 -3.366002721604250E-004
                   164  2.974451122313440E-012
                   165 -1.775480747614379E-006
                   166  2.148341754215980E-012
                   167 -4.118676984882970E-012
                   168 -7.541421588221520E-006
                   169  1.133906747815620E-006
                   170  8.988325138405678E-005
                   171 -3.086014000928320E-012
                   172  3.022707292395800E-012
                   173  2.386824725589920E-005
                   174 -1.588587319587020E-005
                   175  1.679912998163581E-012
                   176  1.032327704998080E-006
                   177 -9.912249234711280E-006
                   178  8.669652187856980E-013
                   179 -3.511640120844520E-013
                   180 -1.454824861341835E-005
                   181 -1.875762123884348E-005
                   182 -1.632757170188950E-004
                   183 -4.766710582257050E-004
                   184  3.938129996909150E-005
                   185  2.357486040335670E-004
                   186 -4.526095266912550E-005
                   187 -4.629838319472220E-005
                   188  5.486270265008350E-012
                   189  2.467974615599280E-004
                   190  8.064199387171700E-005
                   191 -4.961232416765530E-012
                   192  1.385865613767160E-003
                   193 -2.172968451063000E-004
                   194 -1.066081963000280E-011
                   195  8.749830038936495E-007
                   196  3.660740714903090E-012
                   197  5.340275377892380E-014
                   198 -1.212202591206766E-005
                   199  3.488404465632040E-006
                   200 -7.717482300501856E-006
                   201 -8.335884862382370E-012
                   202  5.224952222091460E-012
                   203 -8.150867176097400E-005
                   204 -1.941409947413380E-004
                   205 -1.263994501327932E-012
                   206 -8.600194775467472E-006
                   207 -4.508243311252246E-006
                   208 -2.091724135511240E-012
                   209  2.309394391774750E-012
                   210  7.898198881847756E-006
                   211 -8.115006269851684E-006
                   212  2.644147838528400E-005
                   213  6.554166659314330E-005
                   214  1.071882888525070E-004
                   215  1.118962779980100E-004
                   216  7.354401979091450E-013
                   217  1.710224577803680E-003
                   218 -1.727926350673250E-003
                   219 -4.460476906744390E-004
                   220  1.905740901979550E-004
                   221  1.695800224658110E-012
                   222 -4.720025074250610E-004
                   223 -6.804871155798460E-004
                   224 -3.071558237199720E-006
                   225 -6.480747039328610E-005
                   226  1.602597773180910E-012
                   227 -3.105603493336310E-004
                   228 -4.497938503184090E-004
                   229 -1.488965115111880E-005
                   230 -2.038599525546250E-005
                   231 -3.127337614824710E-012
                   232 -1.059086320040450E-004
                   233 -4.610711609700110E-004
                   234  7.070822914760340E-007
                   235  2.263657549359120E-007
                   236 -3.269335136426600E-012
                   237 -1.723109331205160E-004
                   238 -4.090557978483420E-004
                   239  3.685231421669220E-006
                   240 -7.329930381702060E-007
                   241 -2.481909778463750E-012
                   242  8.908297069249940E-006
                   243  1.744742669580480E-005
                   244 -3.602958373580340E-007
                   245  2.702986576038920E-005
                   246 -1.536473436246630E-012
 Sym= __2_a__
 Ene=  0.000000000000000E+000
 Spin= Alpha
 Occup=    2.00000000000000     
                     1 -5.005725624089970E-005
                     2 -3.030496039928680E-004
                     3  2.627419908559420E-003
                     4  1.411126173682360E-004
                     5  1.401982721458550E-003
                     6 -3.539108449815210E-004
                     7  3.050305502385290E-003
                     8 -1.779449515857280E-012
                     9 -3.542547401715880E-005
                    10 -1.142949525165680E-004
                    11 -1.812210342334020E-012
                    12 -1.090239560761440E-005
                    13 -4.113422138148420E-004
                    14 -8.625479460825360E-013
                    15  3.576283552564075E-005
                    16 -9.010432504720540E-013
                    17  1.289016294867990E-012
                    18 -4.592832029923640E-005
                    19  2.015299684159790E-005
                    20 -1.197797922647842E-004
                    21  1.703447062769650E-012
                    22  2.020576691490300E-012
                    23  1.536393615153178E-004
                    24 -1.322911976177710E-004
                    25  8.194065470395728E-015
                    26 -1.788567525391190E-005
                    27  9.272686696473349E-005
                    28 -2.020764002655220E-012
                    29 -1.312359702615610E-012
                    30 -6.168131529038891E-005
                    31  1.378935621713856E-004
                    32   1.00100684693471     
                    33  9.311970981976930E-003
                    34  2.702576027851560E-003
                    35 -8.033881209631021E-003
                    36 -7.733893820953140E-006
                    37 -3.336865791253930E-003
                    38 -4.579999662917140E-012
                    39 -1.987690848508630E-004
                    40  1.687231606770630E-004
                    41  7.218375026318010E-012
                    42 -1.353210854486280E-004
                    43  4.181208107422130E-003
                    44  1.545496501982270E-011
                    45 -5.607317227174424E-004
                    46 -1.550777304585840E-012
                    47 -2.940408282052040E-012
                    48 -2.305072523149960E-004
                    49  4.361613441170770E-005
                    50  5.221626557656951E-004
                    51  2.064975773049270E-012
                    52  4.140712108860890E-012
                    53 -6.825666624898620E-004
                    54 -3.675940891893200E-004
                    55  2.863415792913838E-012
                    56  1.256482233799816E-005
                    57  1.037709137047533E-004
                    58 -1.235499679460564E-013
                    59  1.039682933153580E-012
                    60 -3.468688183769467E-005
                    61  3.993271641631882E-004
                    62  8.813552576343101E-003
                    63 -2.081621076010590E-003
                    64 -2.389700079783030E-004
                    65  2.709034413417630E-003
                    66 -1.144251001951420E-007
                    67  6.987212740657499E-005
                    68 -6.551427565383180E-013
                    69  5.482031455341530E-004
                    70  1.372973327824890E-004
                    71 -3.459956351059830E-012
                    72 -2.143218078024400E-003
                    73  2.862552337645470E-004
                    74 -1.006892779115710E-011
                    75  3.477512142827240E-005
                    76  1.183714888062390E-012
                    77  2.274493758947650E-012
                    78 -4.153336987086160E-006
                    79  1.691676835260320E-006
                    80 -4.134291392093057E-004
                    81 -5.319892132245330E-012
                    82  4.115735389977580E-013
                    83 -6.263271978726640E-004
                    84 -2.427216260616320E-004
                    85  3.762322072233571E-013
                    86  2.689572810975508E-005
                    87 -5.816919605408454E-005
                    88  7.239074995980240E-013
                    89  2.043872756325790E-012
                    90  4.182720383064428E-005
                    91  1.523879826295279E-004
                    92  1.046791734369040E-002
                    93 -2.078181967958800E-003
                    94 -3.156397455328160E-004
                    95  3.207375690477030E-003
                    96  5.862686836135190E-005
                    97  2.616277011673360E-005
                    98 -8.641601151767600E-012
                    99 -9.419459563013850E-004
                   100  2.215852610189620E-005
                   101  5.978527275691900E-012
                   102  1.796952092829090E-003
                   103  2.520093770525080E-005
                   104 -7.804857349490521E-012
                   105  2.191930949749988E-005
                   106 -3.406720288078120E-012
                   107  3.558917241920320E-012
                   108 -1.503393828086528E-006
                   109  1.218986139177050E-005
                   110 -4.248582235041756E-004
                   111  8.987097995469241E-012
                   112  5.994661446547730E-012
                   113 -3.821755105088420E-004
                   114  2.680596616179170E-004
                   115  1.781562870600780E-012
                   116 -2.605238047977505E-005
                   117 -6.921983180556598E-005
                   118 -2.911701468250240E-012
                   119  4.653561460450950E-013
                   120 -9.826434488201354E-006
                   121  1.347477800420986E-004
                   122 -1.850980837295230E-004
                   123 -7.064199306962890E-004
                   124  2.254154112730180E-004
                   125 -8.525620886431380E-005
                   126  7.009770387855200E-006
                   127 -3.433703417382710E-004
                   128  7.759536550062391E-012
                   129 -8.719386938426611E-005
                   130  5.899937714264520E-004
                   131 -1.006202534620030E-012
                   132  3.703619987361070E-004
                   133  9.199939424482350E-004
                   134  1.347870174923270E-012
                   135  1.693218048333851E-005
                   136  4.900668217578060E-014
                   137  2.090996542885220E-012
                   138  3.580878283919460E-006
                   139  4.372600436813700E-005
                   140  1.321113496526326E-004
                   141  1.067596921024080E-012
                   142 -7.045451828150980E-012
                   143  2.448384733102040E-004
                   144 -1.031937523824140E-004
                   145 -1.999092514781848E-012
                   146  1.000076130975864E-005
                   147 -3.755552800364957E-005
                   148  1.863503296803954E-012
                   149  1.903818779734880E-012
                   150 -4.690085752788815E-005
                   151  3.777476400366209E-005
                   152 -1.163360918553070E-004
                   153 -6.954617793306081E-004
                   154  2.317203645509500E-004
                   155 -3.325401049558250E-005
                   156 -2.889957908921910E-005
                   157 -3.344347020497810E-004
                   158 -1.891707177814330E-012
                   159  1.362519163700500E-004
                   160  5.362441923497840E-004