[Molden Format]
[Atoms] AU
  N     1    7    -0.0849574700   -4.3403702500    0.0000000000        
  C     2    6     0.0316738800   -1.8319748800    0.0000000000        
  C     3    6    -2.3014294200   -0.4318054000    0.0000000000        
  C     4    6     2.3427635300   -0.3999097600    0.0000000000        
  C     5    6    -2.2819920200    2.1503183600    0.0000000000        
  C     6    6     2.2982049800    2.1819453300    0.0000000000        
  C     7    6    -0.0010235900    3.4868675600    0.0000000000        
  H     8    1    -2.8459285200   -5.9827515300    0.0000000000        
  H     9    1     1.6923205700   -5.1201520800    0.0000000000        
  H    10    1    -4.0332900300   -1.4761037300    0.0000000000        
  H    11    1     4.1061551800   -1.4027933700    0.0000000000        
  H    12    1    -4.0354076000    3.1716263900    0.0000000000        
  H    13    1     4.0392645100    3.2241875800    0.0000000000        
  H    14    1    -0.0133668900    5.5143579500    0.0000000000        
[5D]
[7F]
[GTO]
  1  0
   s    12 1.00
  0.114200D+05  0.172695D-04
  0.171200D+04  0.134411D-03
  0.389300D+03  0.694561D-03
  0.110000D+03  0.278531D-02
  0.355700D+02  0.863457D-02
  0.125400D+02  0.199805D-01
  0.464400D+01  0.262908D-01
  0.129300D+01 -0.243845D-01
  0.511800D+00 -0.924934D-01
  0.178700D+00 -0.339683D+00
  0.246240D-01  0.345111D+00
  0.112530D-01  0.752750D+00
   s    10 1.00
  0.114200D+05  0.523000D-03
  0.171200D+04  0.404500D-02
  0.389300D+03  0.207750D-01
  0.110000D+03  0.807269D-01
  0.355700D+02  0.233074D+00
  0.125400D+02  0.433501D+00
  0.464400D+01  0.347472D+00
  0.129300D+01  0.412620D-01
  0.511800D+00 -0.850799D-02
  0.178700D+00  0.238400D-02
   s    10 1.00
  0.114200D+05 -0.115000D-03
  0.171200D+04 -0.895000D-03
  0.389300D+03 -0.462400D-02
  0.110000D+03 -0.185280D-01
  0.355700D+02 -0.573390D-01
  0.125400D+02 -0.132076D+00
  0.464400D+01 -0.172510D+00
  0.129300D+01  0.151814D+00
  0.511800D+00  0.599944D+00
  0.178700D+00  0.387462D+00
   s     1 1.00
  0.129300D+01  0.100000D+01
   s     1 1.00
  0.178700D+00  0.100000D+01
   p     5 1.00
  0.266300D+02  0.146700D-01
  0.594800D+01  0.917640D-01
  0.174200D+01  0.298683D+00
  0.555000D+00  0.498487D+00
  0.172500D+00  0.337023D+00
   p     1 1.00
  0.174200D+01  0.100000D+01
   p     1 1.00
  0.555000D+00  0.100000D+01
   d     1 1.00
  0.165400D+01  0.100000D+01
   d     1 1.00
  0.469000D+00  0.100000D+01
   f     1 1.00
  0.109300D+01  0.100000D+01
  
  2  0
   s    10 1.00
  0.823600D+04  0.531000D-03
  0.123500D+04  0.410800D-02
  0.280800D+03  0.210870D-01
  0.792700D+02  0.818530D-01
  0.255900D+02  0.234817D+00
  0.899700D+01  0.434401D+00
  0.331900D+01  0.346129D+00
  0.905900D+00  0.393780D-01
  0.364300D+00 -0.898300D-02
  0.128500D+00  0.238500D-02
   s    10 1.00
  0.823600D+04 -0.113000D-03
  0.123500D+04 -0.878000D-03
  0.280800D+03 -0.454000D-02
  0.792700D+02 -0.181330D-01
  0.255900D+02 -0.557600D-01
  0.899700D+01 -0.126895D+00
  0.331900D+01 -0.170352D+00
  0.905900D+00  0.140382D+00
  0.364300D+00  0.598684D+00
  0.128500D+00  0.395389D+00
   s     1 1.00
  0.905900D+00  0.100000D+01
   s     1 1.00
  0.364300D+00  0.100000D+01
   p     5 1.00
  0.187100D+02  0.140310D-01
  0.413300D+01  0.868660D-01
  0.120000D+01  0.290216D+00
  0.382700D+00  0.501008D+00
  0.120900D+00  0.343406D+00
   p     1 1.00
  0.382700D+00  0.100000D+01
   p     1 1.00
  0.120900D+00  0.100000D+01
   d     1 1.00
  0.109700D+01  0.100000D+01
   d     1 1.00
  0.318000D+00  0.100000D+01
   f     1 1.00
  0.761000D+00  0.100000D+01
  
  3  0
   s    10 1.00
  0.823600D+04  0.531000D-03
  0.123500D+04  0.410800D-02
  0.280800D+03  0.210870D-01
  0.792700D+02  0.818530D-01
  0.255900D+02  0.234817D+00
  0.899700D+01  0.434401D+00
  0.331900D+01  0.346129D+00
  0.905900D+00  0.393780D-01
  0.364300D+00 -0.898300D-02
  0.128500D+00  0.238500D-02
   s    10 1.00
  0.823600D+04 -0.113000D-03
  0.123500D+04 -0.878000D-03
  0.280800D+03 -0.454000D-02
  0.792700D+02 -0.181330D-01
  0.255900D+02 -0.557600D-01
  0.899700D+01 -0.126895D+00
  0.331900D+01 -0.170352D+00
  0.905900D+00  0.140382D+00
  0.364300D+00  0.598684D+00
  0.128500D+00  0.395389D+00
   s     1 1.00
  0.905900D+00  0.100000D+01
   s     1 1.00
  0.364300D+00  0.100000D+01
   p     5 1.00
  0.187100D+02  0.140310D-01
  0.413300D+01  0.868660D-01
  0.120000D+01  0.290216D+00
  0.382700D+00  0.501008D+00
  0.120900D+00  0.343406D+00
   p     1 1.00
  0.382700D+00  0.100000D+01
   p     1 1.00
  0.120900D+00  0.100000D+01
   d     1 1.00
  0.109700D+01  0.100000D+01
   d     1 1.00
  0.318000D+00  0.100000D+01
   f     1 1.00
  0.761000D+00  0.100000D+01
  
  4  0
   s    10 1.00
  0.823600D+04  0.531000D-03
  0.123500D+04  0.410800D-02
  0.280800D+03  0.210870D-01
  0.792700D+02  0.818530D-01
  0.255900D+02  0.234817D+00
  0.899700D+01  0.434401D+00
  0.331900D+01  0.346129D+00
  0.905900D+00  0.393780D-01
  0.364300D+00 -0.898300D-02
  0.128500D+00  0.238500D-02
   s    10 1.00
  0.823600D+04 -0.113000D-03
  0.123500D+04 -0.878000D-03
  0.280800D+03 -0.454000D-02
  0.792700D+02 -0.181330D-01
  0.255900D+02 -0.557600D-01
  0.899700D+01 -0.126895D+00
  0.331900D+01 -0.170352D+00
  0.905900D+00  0.140382D+00
  0.364300D+00  0.598684D+00
  0.128500D+00  0.395389D+00
   s     1 1.00
  0.905900D+00  0.100000D+01
   s     1 1.00
  0.364300D+00  0.100000D+01
   p     5 1.00
  0.187100D+02  0.140310D-01
  0.413300D+01  0.868660D-01
  0.120000D+01  0.290216D+00
  0.382700D+00  0.501008D+00
  0.120900D+00  0.343406D+00
   p     1 1.00
  0.382700D+00  0.100000D+01
   p     1 1.00
  0.120900D+00  0.100000D+01
   d     1 1.00
  0.109700D+01  0.100000D+01
   d     1 1.00
  0.318000D+00  0.100000D+01
   f     1 1.00
  0.761000D+00  0.100000D+01
  
  5  0
   s    10 1.00
  0.823600D+04  0.531000D-03
  0.123500D+04  0.410800D-02
  0.280800D+03  0.210870D-01
  0.792700D+02  0.818530D-01
  0.255900D+02  0.234817D+00
  0.899700D+01  0.434401D+00
  0.331900D+01  0.346129D+00
  0.905900D+00  0.393780D-01
  0.364300D+00 -0.898300D-02
  0.128500D+00  0.238500D-02
   s    10 1.00
  0.823600D+04 -0.113000D-03
  0.123500D+04 -0.878000D-03
  0.280800D+03 -0.454000D-02
  0.792700D+02 -0.181330D-01
  0.255900D+02 -0.557600D-01
  0.899700D+01 -0.126895D+00
  0.331900D+01 -0.170352D+00
  0.905900D+00  0.140382D+00
  0.364300D+00  0.598684D+00
  0.128500D+00  0.395389D+00
   s     1 1.00
  0.905900D+00  0.100000D+01
   s     1 1.00
  0.364300D+00  0.100000D+01
   p     5 1.00
  0.187100D+02  0.140310D-01
  0.413300D+01  0.868660D-01
  0.120000D+01  0.290216D+00
  0.382700D+00  0.501008D+00
  0.120900D+00  0.343406D+00
   p     1 1.00
  0.382700D+00  0.100000D+01
   p     1 1.00
  0.120900D+00  0.100000D+01
   d     1 1.00
  0.109700D+01  0.100000D+01
   d     1 1.00
  0.318000D+00  0.100000D+01
   f     1 1.00
  0.761000D+00  0.100000D+01
  
  6  0
   s    10 1.00
  0.823600D+04  0.531000D-03
  0.123500D+04  0.410800D-02
  0.280800D+03  0.210870D-01
  0.792700D+02  0.818530D-01
  0.255900D+02  0.234817D+00
  0.899700D+01  0.434401D+00
  0.331900D+01  0.346129D+00
  0.905900D+00  0.393780D-01
  0.364300D+00 -0.898300D-02
  0.128500D+00  0.238500D-02
   s    10 1.00
  0.823600D+04 -0.113000D-03
  0.123500D+04 -0.878000D-03
  0.280800D+03 -0.454000D-02
  0.792700D+02 -0.181330D-01
  0.255900D+02 -0.557600D-01
  0.899700D+01 -0.126895D+00
  0.331900D+01 -0.170352D+00
  0.905900D+00  0.140382D+00
  0.364300D+00  0.598684D+00
  0.128500D+00  0.395389D+00
   s     1 1.00
  0.905900D+00  0.100000D+01
   s     1 1.00
  0.364300D+00  0.100000D+01
   p     5 1.00
  0.187100D+02  0.140310D-01
  0.413300D+01  0.868660D-01
  0.120000D+01  0.290216D+00
  0.382700D+00  0.501008D+00
  0.120900D+00  0.343406D+00
   p     1 1.00
  0.382700D+00  0.100000D+01
   p     1 1.00
  0.120900D+00  0.100000D+01
   d     1 1.00
  0.109700D+01  0.100000D+01
   d     1 1.00
  0.318000D+00  0.100000D+01
   f     1 1.00
  0.761000D+00  0.100000D+01
  
  7  0
   s    10 1.00
  0.823600D+04  0.531000D-03
  0.123500D+04  0.410800D-02
  0.280800D+03  0.210870D-01
  0.792700D+02  0.818530D-01
  0.255900D+02  0.234817D+00
  0.899700D+01  0.434401D+00
  0.331900D+01  0.346129D+00
  0.905900D+00  0.393780D-01
  0.364300D+00 -0.898300D-02
  0.128500D+00  0.238500D-02
   s    10 1.00
  0.823600D+04 -0.113000D-03
  0.123500D+04 -0.878000D-03
  0.280800D+03 -0.454000D-02
  0.792700D+02 -0.181330D-01
  0.255900D+02 -0.557600D-01
  0.899700D+01 -0.126895D+00
  0.331900D+01 -0.170352D+00
  0.905900D+00  0.140382D+00
  0.364300D+00  0.598684D+00
  0.128500D+00  0.395389D+00
   s     1 1.00
  0.905900D+00  0.100000D+01
   s     1 1.00
  0.364300D+00  0.100000D+01
   p     5 1.00
  0.187100D+02  0.140310D-01
  0.413300D+01  0.868660D-01
  0.120000D+01  0.290216D+00
  0.382700D+00  0.501008D+00
  0.120900D+00  0.343406D+00
   p     1 1.00
  0.382700D+00  0.100000D+01
   p     1 1.00
  0.120900D+00  0.100000D+01
   d     1 1.00
  0.109700D+01  0.100000D+01
   d     1 1.00
  0.318000D+00  0.100000D+01
   f     1 1.00
  0.761000D+00  0.100000D+01
  
  8  0
   s     4 1.00
  0.130100D+02  0.196850D-01
  0.196200D+01  0.137977D+00
  0.444600D+00  0.478148D+00
  0.122000D+00  0.501240D+00
   s     1 1.00
  0.122000D+00  0.100000D+01
   p     1 1.00
  0.727000D+00  0.100000D+01
  
  9  0
   s     4 1.00
  0.130100D+02  0.196850D-01
  0.196200D+01  0.137977D+00
  0.444600D+00  0.478148D+00
  0.122000D+00  0.501240D+00
   s     1 1.00
  0.122000D+00  0.100000D+01
   p     1 1.00
  0.727000D+00  0.100000D+01
  
 10  0
   s     4 1.00
  0.130100D+02  0.196850D-01
  0.196200D+01  0.137977D+00
  0.444600D+00  0.478148D+00
  0.122000D+00  0.501240D+00
   s     1 1.00
  0.122000D+00  0.100000D+01
   p     1 1.00
  0.727000D+00  0.100000D+01
  
 11  0
   s     4 1.00
  0.130100D+02  0.196850D-01
  0.196200D+01  0.137977D+00
  0.444600D+00  0.478148D+00
  0.122000D+00  0.501240D+00
   s     1 1.00
  0.122000D+00  0.100000D+01
   p     1 1.00
  0.727000D+00  0.100000D+01
  
 12  0
   s     4 1.00
  0.130100D+02  0.196850D-01
  0.196200D+01  0.137977D+00
  0.444600D+00  0.478148D+00
  0.122000D+00  0.501240D+00
   s     1 1.00
  0.122000D+00  0.100000D+01
   p     1 1.00
  0.727000D+00  0.100000D+01
  
 13  0
   s     4 1.00
  0.130100D+02  0.196850D-01
  0.196200D+01  0.137977D+00
  0.444600D+00  0.478148D+00
  0.122000D+00  0.501240D+00
   s     1 1.00
  0.122000D+00  0.100000D+01
   p     1 1.00
  0.727000D+00  0.100000D+01
  
 14  0
   s     4 1.00
  0.130100D+02  0.196850D-01
  0.196200D+01  0.137977D+00
  0.444600D+00  0.478148D+00
  0.122000D+00  0.501240D+00
   s     1 1.00
  0.122000D+00  0.100000D+01
   p     1 1.00
  0.727000D+00  0.100000D+01
  
[MO]
 Sym= __1_A__
 Ene=  0.000000000000000E+000
 Spin= Alpha
 Occup=    2.00000000000000     
                     1  7.228329740352944E-005
                     2  0.998355929597841     
                     3  2.926683859414448E-003
                     4  1.706832486029254E-003
                     5  5.024438772881661E-003
                     6  3.414977106686087E-003
                     7  6.305257861121412E-003
                     8  4.705724164529729E-012
                     9 -6.000704988508248E-004
                    10 -5.630807143206879E-004
                    11 -8.165701450849115E-012
                    12 -2.362335393611832E-003
                    13 -1.551976052412823E-003
                    14  7.134053050373476E-012
                    15 -1.232779434888402E-004
                    16  1.247734228175164E-012
                    17  2.348179073474398E-014
                    18 -1.861334843132924E-004
                    19 -7.308992897060491E-005
                    20  1.177440110338277E-004
                    21  5.420860621418221E-013
                    22 -6.111951513072079E-014
                    23 -3.424130154684914E-004
                    24  5.329819432277770E-004
                    25 -3.642899844392261E-013
                    26 -1.281315613048193E-005
                    27 -6.448849144641652E-005
                    28  2.346377909500640E-013
                    29  1.638464157823021E-012
                    30  3.442374419426807E-005
                    31 -1.528024525648919E-004
                    32 -3.812277553957433E-004
                    33  1.427133072901813E-003
                    34  3.186979379259692E-004
                    35 -4.215092787388742E-004
                    36 -2.996463532661816E-004
                    37 -5.154038583049391E-003
                    38  1.534512776821844E-011
                    39  4.427535310892961E-004
                    40  5.155374562082480E-004
                    41 -4.609776412472628E-012
                    42 -2.072083282782915E-003
                    43  5.473930247919882E-003
                    44 -1.463789951475138E-012
                    45 -1.668072034525354E-005
                    46  2.963748212156817E-012
                    47 -3.654182451671696E-012
                    48 -2.332082678134720E-004
                    49 -1.047429353347047E-005
                    50 -2.637110139657559E-004
                    51 -2.098904806306751E-012
                    52  8.842353492724767E-012
                    53  5.092395793145026E-005
                    54  7.992319304291732E-004
                    55 -1.079339895763656E-012
                    56 -1.217275639878652E-005
                    57 -5.517269835605411E-005
                    58 -5.694256792060704E-013
                    59 -1.459325737964271E-012
                    60  3.641492419763316E-005
                    61 -1.236056108547780E-004
                    62 -4.701462126781592E-004
                    63 -2.254613150286867E-003
                    64 -8.726568751936076E-005
                    65  2.033833651423225E-003
                    66 -7.052260145501978E-004
                    67  5.522913460497747E-004
                    68  6.951396891317047E-012
                    69  4.018668636504093E-004
                    70  8.382845127672737E-004
                    71 -9.285067736095555E-012
                    72 -1.908313401612317E-003
                    73  8.645719939978356E-004
                    74 -5.387205569010094E-012
                    75 -3.986009629154283E-005
                    76 -9.775508704800675E-013
                    77  2.655405083680619E-012
                    78 -8.087450834479508E-005
                    79 -2.611301896265930E-005
                    80 -1.224140390922864E-004
                    81 -1.231725086035235E-013
                    82 -7.652030243492116E-013
                    83  2.739336663619116E-005
                    84  9.168588710096829E-005
                    85 -3.839726622209948E-012
                    86  1.378113107207359E-005
                    87 -5.061714778476525E-005
                    88  1.664356127600746E-012
                    89 -1.300978321734629E-012
                    90 -2.292934694475921E-005
                    91 -1.490543812073581E-004
                    92 -1.785473040338263E-004
                    93 -1.257411373271696E-003
                    94  2.064814517644325E-004
                    95 -1.785141270109931E-004
                    96  6.122299410497839E-004
                    97  7.661055370156132E-004
                    98  5.108163570223551E-012
                    99  4.085826394223441E-004
                   100  3.678057632745335E-004
                   101 -3.064834749696758E-012
                   102  4.590282851154834E-004
                   103 -1.689182233319041E-003
                   104 -2.156458678155194E-012
                   105  1.258692269303873E-006
                   106 -1.356160672584955E-012
                   107  2.975762537745123E-012
                   108 -8.256586335035715E-005
                   109 -2.092526681103089E-005
                   110  9.578938883212768E-005
                   111  3.987197566226330E-012
                   112 -4.636871127568552E-012
                   113 -1.634368785641115E-004
                   114 -3.268244145756099E-005
                   115  8.171450925509482E-013
                   116 -2.676628375558997E-005
                   117 -2.658971894903830E-005
                   118  1.140103263267714E-012
                   119 -5.605434804477651E-013
                   120 -1.763922250234906E-005
                   121 -2.777267885950619E-005
                   122 -2.536550799733611E-004
                   123 -4.734197778744252E-004
                   124  1.731400129479825E-004
                   125  3.062248115831522E-004
                   126 -1.378048160485326E-005
                   127 -5.989025319086986E-004
                   128  3.465396829377886E-012
                   129  1.847608122655514E-004
                   130  6.420698320115221E-004
                   131  5.063271765871099E-012
                   132  5.751810711607498E-004
                   133  2.067960217895755E-003
                   134 -1.086427875264763E-012
                   135  1.430429542933466E-005
                   136  1.083149329671479E-012
                   137  2.393737620336699E-013
                   138  3.906496865254442E-005
                   139  2.168843748359471E-006
                   140  1.841928372433981E-004
                   141 -3.278587551564704E-012
                   142 -5.218684512054265E-012
                   143  3.790016804852758E-004
                   144  2.386554715909932E-004
                   145  8.202897653561553E-014
                   146 -9.336887796917131E-006
                   147 -6.023667178310658E-005
                   148  1.436654633847668E-012
                   149 -4.189267687392388E-012
                   150 -1.660572336607531E-005
                   151 -4.538078401961844E-005
                   152 -1.586972066226796E-004
                   153 -1.695578997864070E-004
                   154  5.600375059870937E-005
                   155  2.532493908994660E-004
                   156 -2.896967138142441E-005
                   157 -5.340953998107289E-004
                   158 -9.934783795116127E-013
                   159  3.839727503065983E-005
                   160  6.121528564264292E-005
                   161  6.841523105449612E-012
                   162  7.979294469474718E-004
                   163 -3.366002705454533E-004
                   164  2.974451120455498E-012
                   165 -1.775480941034863E-006
                   166  2.148341754225196E-012
                   167 -4.118676984828561E-012
                   168 -7.541422139984088E-006
                   169  1.133906372595970E-006
                   170  8.988325102658271E-005
                   171 -3.086014000187801E-012
                   172  3.022707293988787E-012
                   173  2.386824670157210E-005
                   174 -1.588587347518877E-005
                   175  1.679912998422059E-012
                   176  1.032327713724137E-006
                   177 -9.912249094301276E-006
                   178  8.669652184252644E-013
                   179 -3.511640117126764E-013
                   180 -1.454824850718067E-005
                   181 -1.875762102859976E-005
                   182 -1.632757167747440E-004
                   183 -4.766710583528466E-004
                   184  3.938129995356139E-005
                   185  2.357486036632517E-004
                   186 -4.526095093907248E-005
                   187 -4.629838173625838E-005
                   188  5.486270258582396E-012
                   189  2.467974614133551E-004
                   190  8.064199351988592E-005
                   191 -4.961232414950760E-012
                   192  1.385865612688011E-003
                   193 -2.172968439728993E-004
                   194 -1.066081962884988E-011
                   195  8.749830029131488E-007
                   196  3.660740714546750E-012
                   197  5.340275398145543E-014
                   198 -1.212202619143664E-005
                   199  3.488404349140055E-006
                   200 -7.717482110265181E-006
                   201 -8.335884863869869E-012
                   202  5.224952219974013E-012
                   203 -8.150867187582918E-005
                   204 -1.941409948190748E-004
                   205 -1.263994501876450E-012
                   206 -8.600194771007547E-006
                   207 -4.508243313206241E-006
                   208 -2.091724134934122E-012
                   209  2.309394392946432E-012
                   210  7.898198909003900E-006
                   211 -8.115006204606012E-006
                   212  2.644147762797182E-005
                   213  6.554166555233034E-005
                   214  1.071882888501855E-004
                   215  1.118962779556284E-004
                   216  7.354401975131234E-013
                   217  1.710224576023961E-003
                   218 -1.727926349556866E-003
                   219 -4.460476904840834E-004
                   220  1.905740899727524E-004
                   221  1.695800225432322E-012
                   222 -4.720025190302799E-004
                   223 -6.804871107786110E-004
                   224 -3.071558776902314E-006
                   225 -6.480747069601837E-005
                   226  1.602597773379770E-012
                   227 -3.105603516243683E-004
                   228 -4.497938475377495E-004
                   229 -1.488965071296059E-005
                   230 -2.038599500253004E-005
                   231 -3.127337614453808E-012
                   232 -1.059086311593745E-004
                   233 -4.610711606528925E-004
                   234  7.070823119774734E-007
                   235  2.263656687674027E-007
                   236 -3.269335136415099E-012
                   237 -1.723109420828028E-004
                   238 -4.090557955474879E-004
                   239  3.685231831500718E-006
                   240 -7.329930505909240E-007
                   241 -2.481909779602112E-012
                   242  8.908299973458159E-006
                   243  1.744742657453194E-005
                   244 -3.602958340129544E-007
                   245  2.702986560841314E-005
                   246 -1.536473435943208E-012
 Sym= __2_A__
 Ene=  0.000000000000000E+000
 Spin= Alpha
 Occup=    2.00000000000000     
                     1 -5.005725637066753E-005
                     2 -3.030496113177769E-004
                     3  2.627419908472178E-003
                     4  1.411126173751763E-004
                     5  1.401982720979364E-003
                     6 -3.539108468153466E-004
                     7  3.050305501446215E-003
                     8 -1.779449526870770E-012
                     9 -3.542547398679462E-005
                    10 -1.142949524831263E-004
                    11 -1.812210333256277E-012
                    12 -1.090239561578622E-005
                    13 -4.113422138023196E-004
                    14 -8.625479419912979E-013
                    15  3.576283553796422E-005
                    16 -9.010432506287657E-013
                    17  1.289016292394819E-012
                    18 -4.592832028663568E-005
                    19  2.015299676738502E-005
                    20 -1.197797920504447E-004
                    21  1.703447063425267E-012
                    22  2.020576692626004E-012
                    23  1.536393615337925E-004
                    24 -1.322911980113532E-004
                    25  8.194063950724278E-015
                    26 -1.788567521939001E-005
                    27  9.272686703397921E-005
                    28 -2.020764004077026E-012
                    29 -1.312359702531551E-012
                    30 -6.168131536045504E-005
                    31  1.378935621346100E-004
                    32   1.00100684692085     
                    33  9.311970972280101E-003
                    34  2.702576027327297E-003
                    35 -8.033881205217556E-003
                    36 -7.733905230307577E-006
                    37 -3.336865792152787E-003
                    38 -4.579999648450374E-012
                    39 -1.987690839243751E-004
                    40  1.687231611488546E-004
                    41  7.218375017814180E-012
                    42 -1.353210829290170E-004
                    43  4.181208105936767E-003
                    44  1.545496501753520E-011
                    45 -5.607317225675856E-004
                    46 -1.550777302566311E-012
                    47 -2.940408277983677E-012
                    48 -2.305072525276548E-004
                    49  4.361613416158393E-005
                    50  5.221626554128125E-004
                    51  2.064975772378332E-012
                    52  4.140712105115058E-012
                    53 -6.825666616267960E-004
                    54 -3.675940898536429E-004
                    55  2.863415795257971E-012
                    56  1.256482247621068E-005
                    57  1.037709137518911E-004
                    58 -1.235499694474305E-013
                    59  1.039682933727681E-012
                    60 -3.468688185213745E-005
                    61  3.993271638737771E-004
                    62  8.813552940559570E-003
                    63 -2.081621072111116E-003
                    64 -2.389700067137094E-004
                    65  2.709034409812371E-003
                    66 -1.144187737839953E-007
                    67  6.987212947432824E-005
                    68 -6.551427609870063E-013
                    69  5.482031442789496E-004
                    70  1.372973324270354E-004
                    71 -3.459956341292041E-012
                    72 -2.143218077491678E-003
                    73  2.862552333947065E-004
                    74 -1.006892778800973E-011
                    75  3.477512127941639E-005
                    76  1.183714888412702E-012
                    77  2.274493757703503E-012
                    78 -4.153337192328990E-006
                    79  1.691676592230691E-006
                    80 -4.134291390416034E-004
                    81 -5.319892131905777E-012
                    82  4.115735385338892E-013
                    83 -6.263271974913776E-004
                    84 -2.427216253513863E-004
                    85  3.762322101029376E-013
                    86  2.689572812444483E-005
                    87 -5.816919605272382E-005
                    88  7.239074988290292E-013
                    89  2.043872757541095E-012
                    90  4.182720386563643E-005
                    91  1.523879824683745E-004
                    92  1.046791823611075E-002
                    93 -2.078181964504229E-003
                    94 -3.156397426122918E-004
                    95  3.207375682916066E-003
                    96  5.862687407715257E-005
                    97  2.616278323964644E-005
                    98 -8.641601154136697E-012
                    99 -9.419459558118309E-004
                   100  2.215852519254907E-005
                   101  5.978527287223241E-012
                   102  1.796952090975780E-003
                   103  2.520093549921097E-005
                   104 -7.804857347375227E-012
                   105  2.191930920305107E-005
                   106 -3.406720288048804E-012
                   107  3.558917243331166E-012
                   108 -1.503394290422038E-006
                   109  1.218986116188191E-005
                   110 -4.248582229097863E-004
                   111  8.987097993476650E-012
                   112  5.994661453159077E-012
                   113 -3.821755099498312E-004
                   114  2.680596600940538E-004
                   115  1.781562871636843E-012
                   116 -2.605238063992117E-005
                   117 -6.921983191850186E-005
                   118 -2.911701469757094E-012
                   119  4.653561458787652E-013
                   120 -9.826434440419900E-006
                   121  1.347477798414988E-004
                   122 -1.850980583376511E-004
                   123 -7.064199306987454E-004
                   124  2.254154111486128E-004
                   125 -8.525620719146955E-005
                   126  7.009769196749448E-006
                   127 -3.433703444058085E-004
                   128  7.759536555041278E-012
                   129 -8.719386937115264E-005
                   130  5.899937711903694E-004
                   131 -1.006202533891657E-012
                   132  3.703619976634959E-004
                   133  9.199939426868500E-004
                   134  1.347870165705551E-012
                   135  1.693218046063040E-005
                   136  4.900668330440224E-014
                   137  2.090996544456413E-012
                   138  3.580878214504936E-006
                   139  4.372600423778309E-005
                   140  1.321113494559480E-004
                   141  1.067596918121903E-012
                   142 -7.045451820467582E-012
                   143  2.448384729725664E-004
                   144 -1.031937521511019E-004
                   145 -1.999092517736087E-012
                   146  1.000076130869593E-005
                   147 -3.755552801614447E-005
                   148  1.863503299040755E-012
                   149  1.903818780408241E-012
                   150 -4.690085750006831E-005
                   151  3.777476401279913E-005
                   152 -1.163360686516403E-004
                   153 -6.954617757093956E-004
                   154  2.317203641451731E-004
                   155 -3.325400767795855E-005
                   156 -2.889958040445983E-005
                   157 -3.344347111979249E-004
                   158 -1.891707158655452E-012
                   159  1.362519164072349E-004
                   160  5.362441924383628E-004