[Molden Format]
[Atoms] AU
  N     1    7    -0.0849574700   -4.3403702500    0.0000000000        
  C     2    6     0.0316738800   -1.8319748800    0.0000000000        
  C     3    6    -2.3014294200   -0.4318054000    0.0000000000        
  C     4    6     2.3427635300   -0.3999097600    0.0000000000        
  C     5    6    -2.2819920200    2.1503183600    0.0000000000        
  C     6    6     2.2982049800    2.1819453300    0.0000000000        
  C     7    6    -0.0010235900    3.4868675600    0.0000000000        
  H     8    1    -2.8459285200   -5.9827515300    0.0000000000        
  H     9    1     1.6923205700   -5.1201520800    0.0000000000        
  H    10    1    -4.0332900300   -1.4761037300    0.0000000000        
  H    11    1     4.1061551800   -1.4027933700    0.0000000000        
  H    12    1    -4.0354076000    3.1716263900    0.0000000000        
  H    13    1     4.0392645100    3.2241875800    0.0000000000        
  H    14    1    -0.0133668900    5.5143579500    0.0000000000        
[5D]
[7F]
[GTO]
  1  0
   s    12 1.00
  0.114200D+05  0.172695D-04
  0.171200D+04  0.134411D-03
  0.389300D+03  0.694561D-03
  0.110000D+03  0.278531D-02
  0.355700D+02  0.863457D-02
  0.125400D+02  0.199805D-01
  0.464400D+01  0.262908D-01
  0.129300D+01 -0.243845D-01
  0.511800D+00 -0.924934D-01
  0.178700D+00 -0.339683D+00
  0.246240D-01  0.345111D+00
  0.112530D-01  0.752750D+00
   s    10 1.00
  0.114200D+05  0.523000D-03
  0.171200D+04  0.404500D-02
  0.389300D+03  0.207750D-01
  0.110000D+03  0.807269D-01
  0.355700D+02  0.233074D+00
  0.125400D+02  0.433501D+00
  0.464400D+01  0.347472D+00
  0.129300D+01  0.412620D-01
  0.511800D+00 -0.850799D-02
  0.178700D+00  0.238400D-02
   s    10 1.00
  0.114200D+05 -0.115000D-03
  0.171200D+04 -0.895000D-03
  0.389300D+03 -0.462400D-02
  0.110000D+03 -0.185280D-01
  0.355700D+02 -0.573390D-01
  0.125400D+02 -0.132076D+00
  0.464400D+01 -0.172510D+00
  0.129300D+01  0.151814D+00
  0.511800D+00  0.599944D+00
  0.178700D+00  0.387462D+00
   s     1 1.00
  0.129300D+01  0.100000D+01
   s     1 1.00
  0.178700D+00  0.100000D+01
   p     5 1.00
  0.266300D+02  0.146700D-01
  0.594800D+01  0.917640D-01
  0.174200D+01  0.298683D+00
  0.555000D+00  0.498487D+00
  0.172500D+00  0.337023D+00
   p     1 1.00
  0.174200D+01  0.100000D+01
   p     1 1.00
  0.555000D+00  0.100000D+01
   d     1 1.00
  0.165400D+01  0.100000D+01
   d     1 1.00
  0.469000D+00  0.100000D+01
   f     1 1.00
  0.109300D+01  0.100000D+01
  
  2  0
   s    10 1.00
  0.823600D+04  0.531000D-03
  0.123500D+04  0.410800D-02
  0.280800D+03  0.210870D-01
  0.792700D+02  0.818530D-01
  0.255900D+02  0.234817D+00
  0.899700D+01  0.434401D+00
  0.331900D+01  0.346129D+00
  0.905900D+00  0.393780D-01
  0.364300D+00 -0.898300D-02
  0.128500D+00  0.238500D-02
   s    10 1.00
  0.823600D+04 -0.113000D-03
  0.123500D+04 -0.878000D-03
  0.280800D+03 -0.454000D-02
  0.792700D+02 -0.181330D-01
  0.255900D+02 -0.557600D-01
  0.899700D+01 -0.126895D+00
  0.331900D+01 -0.170352D+00
  0.905900D+00  0.140382D+00
  0.364300D+00  0.598684D+00
  0.128500D+00  0.395389D+00
   s     1 1.00
  0.905900D+00  0.100000D+01
   s     1 1.00
  0.364300D+00  0.100000D+01
   p     5 1.00
  0.187100D+02  0.140310D-01
  0.413300D+01  0.868660D-01
  0.120000D+01  0.290216D+00
  0.382700D+00  0.501008D+00
  0.120900D+00  0.343406D+00
   p     1 1.00
  0.382700D+00  0.100000D+01
   p     1 1.00
  0.120900D+00  0.100000D+01
   d     1 1.00
  0.109700D+01  0.100000D+01
   d     1 1.00
  0.318000D+00  0.100000D+01
   f     1 1.00
  0.761000D+00  0.100000D+01
  
  3  0
   s    10 1.00
  0.823600D+04  0.531000D-03
  0.123500D+04  0.410800D-02
  0.280800D+03  0.210870D-01
  0.792700D+02  0.818530D-01
  0.255900D+02  0.234817D+00
  0.899700D+01  0.434401D+00
  0.331900D+01  0.346129D+00
  0.905900D+00  0.393780D-01
  0.364300D+00 -0.898300D-02
  0.128500D+00  0.238500D-02
   s    10 1.00
  0.823600D+04 -0.113000D-03
  0.123500D+04 -0.878000D-03
  0.280800D+03 -0.454000D-02
  0.792700D+02 -0.181330D-01
  0.255900D+02 -0.557600D-01
  0.899700D+01 -0.126895D+00
  0.331900D+01 -0.170352D+00
  0.905900D+00  0.140382D+00
  0.364300D+00  0.598684D+00
  0.128500D+00  0.395389D+00
   s     1 1.00
  0.905900D+00  0.100000D+01
   s     1 1.00
  0.364300D+00  0.100000D+01
   p     5 1.00
  0.187100D+02  0.140310D-01
  0.413300D+01  0.868660D-01
  0.120000D+01  0.290216D+00
  0.382700D+00  0.501008D+00
  0.120900D+00  0.343406D+00
   p     1 1.00
  0.382700D+00  0.100000D+01
   p     1 1.00
  0.120900D+00  0.100000D+01
   d     1 1.00
  0.109700D+01  0.100000D+01
   d     1 1.00
  0.318000D+00  0.100000D+01
   f     1 1.00
  0.761000D+00  0.100000D+01
  
  4  0
   s    10 1.00
  0.823600D+04  0.531000D-03
  0.123500D+04  0.410800D-02
  0.280800D+03  0.210870D-01
  0.792700D+02  0.818530D-01
  0.255900D+02  0.234817D+00
  0.899700D+01  0.434401D+00
  0.331900D+01  0.346129D+00
  0.905900D+00  0.393780D-01
  0.364300D+00 -0.898300D-02
  0.128500D+00  0.238500D-02
   s    10 1.00
  0.823600D+04 -0.113000D-03
  0.123500D+04 -0.878000D-03
  0.280800D+03 -0.454000D-02
  0.792700D+02 -0.181330D-01
  0.255900D+02 -0.557600D-01
  0.899700D+01 -0.126895D+00
  0.331900D+01 -0.170352D+00
  0.905900D+00  0.140382D+00
  0.364300D+00  0.598684D+00
  0.128500D+00  0.395389D+00
   s     1 1.00
  0.905900D+00  0.100000D+01
   s     1 1.00
  0.364300D+00  0.100000D+01
   p     5 1.00
  0.187100D+02  0.140310D-01
  0.413300D+01  0.868660D-01
  0.120000D+01  0.290216D+00
  0.382700D+00  0.501008D+00
  0.120900D+00  0.343406D+00
   p     1 1.00
  0.382700D+00  0.100000D+01
   p     1 1.00
  0.120900D+00  0.100000D+01
   d     1 1.00
  0.109700D+01  0.100000D+01
   d     1 1.00
  0.318000D+00  0.100000D+01
   f     1 1.00
  0.761000D+00  0.100000D+01
  
  5  0
   s    10 1.00
  0.823600D+04  0.531000D-03
  0.123500D+04  0.410800D-02
  0.280800D+03  0.210870D-01
  0.792700D+02  0.818530D-01
  0.255900D+02  0.234817D+00
  0.899700D+01  0.434401D+00
  0.331900D+01  0.346129D+00
  0.905900D+00  0.393780D-01
  0.364300D+00 -0.898300D-02
  0.128500D+00  0.238500D-02
   s    10 1.00
  0.823600D+04 -0.113000D-03
  0.123500D+04 -0.878000D-03
  0.280800D+03 -0.454000D-02
  0.792700D+02 -0.181330D-01
  0.255900D+02 -0.557600D-01
  0.899700D+01 -0.126895D+00
  0.331900D+01 -0.170352D+00
  0.905900D+00  0.140382D+00
  0.364300D+00  0.598684D+00
  0.128500D+00  0.395389D+00
   s     1 1.00
  0.905900D+00  0.100000D+01
   s     1 1.00
  0.364300D+00  0.100000D+01
   p     5 1.00
  0.187100D+02  0.140310D-01
  0.413300D+01  0.868660D-01
  0.120000D+01  0.290216D+00
  0.382700D+00  0.501008D+00
  0.120900D+00  0.343406D+00
   p     1 1.00
  0.382700D+00  0.100000D+01
   p     1 1.00
  0.120900D+00  0.100000D+01
   d     1 1.00
  0.109700D+01  0.100000D+01
   d     1 1.00
  0.318000D+00  0.100000D+01
   f     1 1.00
  0.761000D+00  0.100000D+01
  
  6  0
   s    10 1.00
  0.823600D+04  0.531000D-03
  0.123500D+04  0.410800D-02
  0.280800D+03  0.210870D-01
  0.792700D+02  0.818530D-01
  0.255900D+02  0.234817D+00
  0.899700D+01  0.434401D+00
  0.331900D+01  0.346129D+00
  0.905900D+00  0.393780D-01
  0.364300D+00 -0.898300D-02
  0.128500D+00  0.238500D-02
   s    10 1.00
  0.823600D+04 -0.113000D-03
  0.123500D+04 -0.878000D-03
  0.280800D+03 -0.454000D-02
  0.792700D+02 -0.181330D-01
  0.255900D+02 -0.557600D-01
  0.899700D+01 -0.126895D+00
  0.331900D+01 -0.170352D+00
  0.905900D+00  0.140382D+00
  0.364300D+00  0.598684D+00
  0.128500D+00  0.395389D+00
   s     1 1.00
  0.905900D+00  0.100000D+01
   s     1 1.00
  0.364300D+00  0.100000D+01
   p     5 1.00
  0.187100D+02  0.140310D-01
  0.413300D+01  0.868660D-01
  0.120000D+01  0.290216D+00
  0.382700D+00  0.501008D+00
  0.120900D+00  0.343406D+00
   p     1 1.00
  0.382700D+00  0.100000D+01
   p     1 1.00
  0.120900D+00  0.100000D+01
   d     1 1.00
  0.109700D+01  0.100000D+01
   d     1 1.00
  0.318000D+00  0.100000D+01
   f     1 1.00
  0.761000D+00  0.100000D+01
  
  7  0
   s    10 1.00
  0.823600D+04  0.531000D-03
  0.123500D+04  0.410800D-02
  0.280800D+03  0.210870D-01
  0.792700D+02  0.818530D-01
  0.255900D+02  0.234817D+00
  0.899700D+01  0.434401D+00
  0.331900D+01  0.346129D+00
  0.905900D+00  0.393780D-01
  0.364300D+00 -0.898300D-02
  0.128500D+00  0.238500D-02
   s    10 1.00
  0.823600D+04 -0.113000D-03
  0.123500D+04 -0.878000D-03
  0.280800D+03 -0.454000D-02
  0.792700D+02 -0.181330D-01
  0.255900D+02 -0.557600D-01
  0.899700D+01 -0.126895D+00
  0.331900D+01 -0.170352D+00
  0.905900D+00  0.140382D+00
  0.364300D+00  0.598684D+00
  0.128500D+00  0.395389D+00
   s     1 1.00
  0.905900D+00  0.100000D+01
   s     1 1.00
  0.364300D+00  0.100000D+01
   p     5 1.00
  0.187100D+02  0.140310D-01
  0.413300D+01  0.868660D-01
  0.120000D+01  0.290216D+00
  0.382700D+00  0.501008D+00
  0.120900D+00  0.343406D+00
   p     1 1.00
  0.382700D+00  0.100000D+01
   p     1 1.00
  0.120900D+00  0.100000D+01
   d     1 1.00
  0.109700D+01  0.100000D+01
   d     1 1.00
  0.318000D+00  0.100000D+01
   f     1 1.00
  0.761000D+00  0.100000D+01
  
  8  0
   s     4 1.00
  0.130100D+02  0.196850D-01
  0.196200D+01  0.137977D+00
  0.444600D+00  0.478148D+00
  0.122000D+00  0.501240D+00
   s     1 1.00
  0.122000D+00  0.100000D+01
   p     1 1.00
  0.727000D+00  0.100000D+01
  
  9  0
   s     4 1.00
  0.130100D+02  0.196850D-01
  0.196200D+01  0.137977D+00
  0.444600D+00  0.478148D+00
  0.122000D+00  0.501240D+00
   s     1 1.00
  0.122000D+00  0.100000D+01
   p     1 1.00
  0.727000D+00  0.100000D+01
  
 10  0
   s     4 1.00
  0.130100D+02  0.196850D-01
  0.196200D+01  0.137977D+00
  0.444600D+00  0.478148D+00
  0.122000D+00  0.501240D+00
   s     1 1.00
  0.122000D+00  0.100000D+01
   p     1 1.00
  0.727000D+00  0.100000D+01
  
 11  0
   s     4 1.00
  0.130100D+02  0.196850D-01
  0.196200D+01  0.137977D+00
  0.444600D+00  0.478148D+00
  0.122000D+00  0.501240D+00
   s     1 1.00
  0.122000D+00  0.100000D+01
   p     1 1.00
  0.727000D+00  0.100000D+01
  
 12  0
   s     4 1.00
  0.130100D+02  0.196850D-01
  0.196200D+01  0.137977D+00
  0.444600D+00  0.478148D+00
  0.122000D+00  0.501240D+00
   s     1 1.00
  0.122000D+00  0.100000D+01
   p     1 1.00
  0.727000D+00  0.100000D+01
  
 13  0
   s     4 1.00
  0.130100D+02  0.196850D-01
  0.196200D+01  0.137977D+00
  0.444600D+00  0.478148D+00
  0.122000D+00  0.501240D+00
   s     1 1.00
  0.122000D+00  0.100000D+01
   p     1 1.00
  0.727000D+00  0.100000D+01
  
 14  0
   s     4 1.00
  0.130100D+02  0.196850D-01
  0.196200D+01  0.137977D+00
  0.444600D+00  0.478148D+00
  0.122000D+00  0.501240D+00
   s     1 1.00
  0.122000D+00  0.100000D+01
   p     1 1.00
  0.727000D+00  0.100000D+01
  
[MO]
 Sym= __1_A__
 Ene=   1.00000000000000     
 Spin= Alpha
 Occup=    1.00000000000000     
                     1  7.228329749042312E-005
                     2  0.998355929597474     
                     3  2.926683860937355E-003
                     4  1.706832485943216E-003
                     5  5.024438771797945E-003
                     6  3.414977110093019E-003
                     7  6.305257863258564E-003
                     8  4.705724167730176E-012
                     9 -6.000704987844175E-004
                    10 -5.630807142278858E-004
                    11 -8.165701455457080E-012
                    12 -2.362335393743724E-003
                    13 -1.551976052309803E-003
                    14  7.134053047817924E-012
                    15 -1.232779435645596E-004
                    16  1.247734227192799E-012
                    17  2.348179041727154E-014
                    18 -1.861334843395532E-004
                    19 -7.308992881286634E-005
                    20  1.177440108333982E-004
                    21  5.420860627629316E-013
                    22 -6.111951501557369E-014
                    23 -3.424130158830272E-004
                    24  5.329819438988047E-004
                    25 -3.642899849206276E-013
                    26 -1.281315617590413E-005
                    27 -6.448849153496232E-005
                    28  2.346377907159496E-013
                    29  1.638464157722010E-012
                    30  3.442374430675378E-005
                    31 -1.528024525845794E-004
                    32 -3.812277636821752E-004
                    33  1.427133101453916E-003
                    34  3.186979376334798E-004
                    35 -4.215092804682695E-004
                    36 -2.996463316695412E-004
                    37 -5.154038575550076E-003
                    38  1.534512775576883E-011
                    39  4.427535303992914E-004
                    40  5.155374566224776E-004
                    41 -4.609776409516989E-012
                    42 -2.072083288290499E-003
                    43  5.473930249170186E-003
                    44 -1.463789953837901E-012
                    45 -1.668072076034935E-005
                    46  2.963748212559454E-012
                    47 -3.654182452268619E-012
                    48 -2.332082672794394E-004
                    49 -1.047429299955863E-005
                    50 -2.637110149089948E-004
                    51 -2.098904803125195E-012
                    52  8.842353494673981E-012
                    53  5.092395840201318E-005
                    54  7.992319315285676E-004
                    55 -1.079339896735041E-012
                    56 -1.217275659748424E-005
                    57 -5.517269845103274E-005
                    58 -5.694256782027888E-013
                    59 -1.459325737120560E-012
                    60  3.641492422088873E-005
                    61 -1.236056103832622E-004
                    62 -4.701462131656551E-004
                    63 -2.254613148786333E-003
                    64 -8.726568742753307E-005
                    65  2.033833651895950E-003
                    66 -7.052260205772541E-004
                    67  5.522913386609512E-004
                    68  6.951396884780220E-012
                    69  4.018668644693664E-004
                    70  8.382845144918761E-004
                    71 -9.285067733375116E-012
                    72 -1.908313404836064E-003
                    73  8.645719967388928E-004
                    74 -5.387205566412575E-012
                    75 -3.986009634613845E-005
                    76 -9.775508714611890E-013
                    77  2.655405083292759E-012
                    78 -8.087450796159049E-005
                    79 -2.611301870172398E-005
                    80 -1.224140390770730E-004
                    81 -1.231725058100067E-013
                    82 -7.652030250946546E-013
                    83  2.739336655094764E-005
                    84  9.168588671503331E-005
                    85 -3.839726622127857E-012
                    86  1.378113109515026E-005
                    87 -5.061714777575179E-005
                    88  1.664356128184866E-012
                    89 -1.300978321729739E-012
                    90 -2.292934700922375E-005
                    91 -1.490543812365420E-004
                    92 -1.785473048921102E-004
                    93 -1.257411363056906E-003
                    94  2.064814516768707E-004
                    95 -1.785141275049036E-004
                    96  6.122299236517836E-004
                    97  7.661055090121828E-004
                    98  5.108163568603783E-012
                    99  4.085826406586023E-004
                   100  3.678057660726457E-004
                   101 -3.064834751364927E-012
                   102  4.590282898549705E-004
                   103 -1.689182226936136E-003
                   104 -2.156458678329478E-012
                   105  1.258692095571292E-006
                   106 -1.356160672821511E-012
                   107  2.975762538036646E-012
                   108 -8.256586260264562E-005
                   109 -2.092526611343342E-005
                   110  9.578938853997450E-005
                   111  3.987197570889002E-012
                   112 -4.636871128649517E-012
                   113 -1.634368786214503E-004
                   114 -3.268244052393901E-005
                   115  8.171450918446520E-013
                   116 -2.676628359584008E-005
                   117 -2.658971872183912E-005
                   118  1.140103263367076E-012
                   119 -5.605434805835012E-013
                   120 -1.763922258257899E-005
                   121 -2.777267902165890E-005
                   122 -2.536550804022686E-004
                   123 -4.734197815606592E-004
                   124  1.731400131623682E-004
                   125  3.062248117394238E-004
                   126 -1.378047967382110E-005
                   127 -5.989025262205949E-004
                   128  3.465396830630930E-012
                   129  1.847608123722583E-004
                   130  6.420698322459384E-004
                   131  5.063271766524925E-012
                   132  5.751810723395648E-004
                   133  2.067960219577734E-003
                   134 -1.086427874250072E-012
                   135  1.430429550078264E-005
                   136  1.083149328722751E-012
                   137  2.393737626410097E-013
                   138  3.906496881015698E-005
                   139  2.168843887884884E-006
                   140  1.841928373508155E-004
                   141 -3.278587548364616E-012
                   142 -5.218684511872689E-012
                   143  3.790016811378212E-004
                   144  2.386554715985579E-004
                   145  8.202897671541488E-014
                   146 -9.336887802342493E-006
                   147 -6.023667185350822E-005
                   148  1.436654633994197E-012
                   149 -4.189267686802685E-012
                   150 -1.660572337146594E-005
                   151 -4.538078408424100E-005
                   152 -1.586972066942755E-004
                   153 -1.695579105907145E-004
                   154  5.600375094932440E-005
                   155  2.532493912614765E-004
                   156 -2.896966824902467E-005
                   157 -5.340953824308571E-004
                   158 -9.934783772193981E-013
                   159  3.839727451120442E-005
                   160  6.121528479974465E-005
                   161  6.841523106682713E-012
                   162  7.979294476353042E-004
                   163 -3.366002721604254E-004
                   164  2.974451122313440E-012
                   165 -1.775480747614379E-006
                   166  2.148341754215978E-012
                   167 -4.118676984882970E-012
                   168 -7.541421588221514E-006
                   169  1.133906747815616E-006
                   170  8.988325138405686E-005
                   171 -3.086014000928317E-012
                   172  3.022707292395795E-012
                   173  2.386824725589916E-005
                   174 -1.588587319587017E-005
                   175  1.679912998163581E-012
                   176  1.032327704998078E-006
                   177 -9.912249234711294E-006
                   178  8.669652187856990E-013
                   179 -3.511640120844521E-013
                   180 -1.454824861341836E-005
                   181 -1.875762123884349E-005
                   182 -1.632757170188950E-004
                   183 -4.766710582257047E-004
                   184  3.938129996909147E-005
                   185  2.357486040335673E-004
                   186 -4.526095266912554E-005
                   187 -4.629838319472217E-005
                   188  5.486270265008353E-012
                   189  2.467974615599279E-004
                   190  8.064199387171704E-005
                   191 -4.961232416765526E-012
                   192  1.385865613767163E-003
                   193 -2.172968451062997E-004
                   194 -1.066081963000282E-011
                   195  8.749830038936505E-007
                   196  3.660740714903089E-012
                   197  5.340275377892382E-014
                   198 -1.212202591206766E-005
                   199  3.488404465632038E-006
                   200 -7.717482300501839E-006
                   201 -8.335884862382370E-012
                   202  5.224952222091465E-012
                   203 -8.150867176097397E-005
                   204 -1.941409947413381E-004
                   205 -1.263994501327932E-012
                   206 -8.600194775467486E-006
                   207 -4.508243311252244E-006
                   208 -2.091724135511236E-012
                   209  2.309394391774750E-012
                   210  7.898198881847751E-006
                   211 -8.115006269851674E-006
                   212  2.644147838528397E-005
                   213  6.554166659314326E-005
                   214  1.071882888525069E-004
                   215  1.118962779980103E-004
                   216  7.354401979091455E-013
                   217  1.710224577803679E-003
                   218 -1.727926350673246E-003
                   219 -4.460476906744393E-004
                   220  1.905740901979546E-004
                   221  1.695800224658112E-012
                   222 -4.720025074250610E-004
                   223 -6.804871155798460E-004
                   224 -3.071558237199723E-006
                   225 -6.480747039328611E-005
                   226  1.602597773180914E-012
                   227 -3.105603493336313E-004
                   228 -4.497938503184091E-004
                   229 -1.488965115111882E-005
                   230 -2.038599525546248E-005
                   231 -3.127337614824706E-012
                   232 -1.059086320040452E-004
                   233 -4.610711609700105E-004
                   234  7.070822914760339E-007
                   235  2.263657549359122E-007
                   236 -3.269335136426601E-012
                   237 -1.723109331205165E-004
                   238 -4.090557978483418E-004
                   239  3.685231421669218E-006
                   240 -7.329930381702061E-007
                   241 -2.481909778463750E-012
                   242  8.908297069249940E-006
                   243  1.744742669580482E-005
                   244 -3.602958373580338E-007
                   245  2.702986576038922E-005
                   246 -1.536473436246635E-012
 Sym= __2_A__
 Ene=   2.00000000000000     
 Spin= Alpha
 Occup=    1.00000000000000     
                     1 -5.005725624089967E-005
                     2 -3.030496039928683E-004
                     3  2.627419908559425E-003
                     4  1.411126173682359E-004
                     5  1.401982721458556E-003
                     6 -3.539108449815210E-004
                     7  3.050305502385295E-003
                     8 -1.779449515857278E-012
                     9 -3.542547401715883E-005
                    10 -1.142949525165685E-004
                    11 -1.812210342334025E-012
                    12 -1.090239560761436E-005
                    13 -4.113422138148420E-004
                    14 -8.625479460825365E-013
                    15  3.576283552564065E-005
                    16 -9.010432504720540E-013
                    17  1.289016294867989E-012
                    18 -4.592832029923640E-005
                    19  2.015299684159791E-005
                    20 -1.197797922647841E-004
                    21  1.703447062769649E-012
                    22  2.020576691490304E-012
                    23  1.536393615153180E-004
                    24 -1.322911976177711E-004
                    25  8.194065470395741E-015
                    26 -1.788567525391190E-005
                    27  9.272686696473380E-005
                    28 -2.020764002655214E-012
                    29 -1.312359702615612E-012
                    30 -6.168131529038894E-005
                    31  1.378935621713858E-004
                    32   1.00100684693471     
                    33  9.311970981976931E-003
                    34  2.702576027851560E-003
                    35 -8.033881209631021E-003
                    36 -7.733893820953145E-006
                    37 -3.336865791253932E-003
                    38 -4.579999662917138E-012
                    39 -1.987690848508629E-004
                    40  1.687231606770634E-004
                    41  7.218375026318010E-012
                    42 -1.353210854486277E-004
                    43  4.181208107422135E-003
                    44  1.545496501982271E-011
                    45 -5.607317227174434E-004
                    46 -1.550777304585839E-012
                    47 -2.940408282052039E-012
                    48 -2.305072523149964E-004
                    49  4.361613441170774E-005
                    50  5.221626557656968E-004
                    51  2.064975773049271E-012
                    52  4.140712108860892E-012
                    53 -6.825666624898623E-004
                    54 -3.675940891893205E-004
                    55  2.863415792913840E-012
                    56  1.256482233799817E-005
                    57  1.037709137047532E-004
                    58 -1.235499679460565E-013
                    59  1.039682933153580E-012
                    60 -3.468688183769464E-005
                    61  3.993271641631882E-004
                    62  8.813552576343099E-003
                    63 -2.081621076010591E-003
                    64 -2.389700079783030E-004
                    65  2.709034413417633E-003
                    66 -1.144251001951414E-007
                    67  6.987212740657506E-005
                    68 -6.551427565383182E-013
                    69  5.482031455341534E-004
                    70  1.372973327824888E-004
                    71 -3.459956351059834E-012
                    72 -2.143218078024404E-003
                    73  2.862552337645469E-004
                    74 -1.006892779115713E-011
                    75  3.477512142827251E-005
                    76  1.183714888062391E-012
                    77  2.274493758947654E-012
                    78 -4.153336987086152E-006
                    79  1.691676835260326E-006
                    80 -4.134291392093075E-004
                    81 -5.319892132245335E-012
                    82  4.115735389977582E-013
                    83 -6.263271978726640E-004
                    84 -2.427216260616322E-004
                    85  3.762322072233566E-013
                    86  2.689572810975506E-005
                    87 -5.816919605408457E-005
                    88  7.239074995980238E-013
                    89  2.043872756325792E-012
                    90  4.182720383064431E-005
                    91  1.523879826295278E-004
                    92  1.046791734369040E-002
                    93 -2.078181967958806E-003
                    94 -3.156397455328164E-004
                    95  3.207375690477029E-003
                    96  5.862686836135197E-005
                    97  2.616277011673363E-005
                    98 -8.641601151767605E-012
                    99 -9.419459563013858E-004
                   100  2.215852610189625E-005
                   101  5.978527275691899E-012
                   102  1.796952092829087E-003
                   103  2.520093770525084E-005
                   104 -7.804857349490522E-012
                   105  2.191930949749988E-005
                   106 -3.406720288078120E-012
                   107  3.558917241920319E-012
                   108 -1.503393828086528E-006
                   109  1.218986139177054E-005
                   110 -4.248582235041752E-004
                   111  8.987097995469241E-012
                   112  5.994661446547736E-012
                   113 -3.821755105088424E-004
                   114  2.680596616179171E-004
                   115  1.781562870600782E-012
                   116 -2.605238047977508E-005
                   117 -6.921983180556598E-005
                   118 -2.911701468250234E-012
                   119  4.653561460450955E-013
                   120 -9.826434488201354E-006
                   121  1.347477800420988E-004
                   122 -1.850980837295235E-004
                   123 -7.064199306962895E-004
                   124  2.254154112730181E-004
                   125 -8.525620886431381E-005
                   126  7.009770387855205E-006
                   127 -3.433703417382708E-004
                   128  7.759536550062395E-012
                   129 -8.719386938426609E-005
                   130  5.899937714264517E-004
                   131 -1.006202534620026E-012
                   132  3.703619987361070E-004
                   133  9.199939424482354E-004
                   134  1.347870174923268E-012
                   135  1.693218048333853E-005
                   136  4.900668217578064E-014
                   137  2.090996542885221E-012
                   138  3.580878283919472E-006
                   139  4.372600436813701E-005
                   140  1.321113496526326E-004
                   141  1.067596921024083E-012
                   142 -7.045451828150980E-012
                   143  2.448384733102034E-004
                   144 -1.031937523824144E-004
                   145 -1.999092514781850E-012
                   146  1.000076130975862E-005
                   147 -3.755552800364957E-005
                   148  1.863503296803954E-012
                   149  1.903818779734883E-012
                   150 -4.690085752788813E-005
                   151  3.777476400366209E-005
                   152 -1.163360918553069E-004
                   153 -6.954617793306087E-004
                   154  2.317203645509500E-004
                   155 -3.325401049558248E-005
                   156 -2.889957908921912E-005
                   157 -3.344347020497815E-004
                   158 -1.891707177814330E-012
                   159  1.362519163700500E-004
                   160  5.362441923497844E-004