[Molden Format]
[Atoms] AU
  N     1    7    -0.1122210500   -4.3599459700    0.0000000000        
  C     2    6     0.0335913200   -1.8109490900    0.0000000000        
  C     3    6    -2.2887225800   -0.4296606100    0.0000000000        
  C     4    6     2.3335870100   -0.3906131500    0.0000000000        
  C     5    6    -2.2786527300    2.1540276000    0.0000000000        
  C     6    6     2.3003188500    2.1863690200    0.0000000000        
  C     7    6     0.0032261900    3.4879101500    0.0000000000        
  H     8    1    -7.9643882600   -9.6154280300    0.0000000000        
  H     9    1     1.6906756500   -5.1120232200    0.0000000000        
  H    10    1    -4.0236500100   -1.4744530400    0.0000000000        
  H    11    1     4.0964291800   -1.3976801700    0.0000000000        
  H    12    1    -4.0313054100    3.1764614600    0.0000000000        
  H    13    1     4.0386937700    3.2333879300    0.0000000000        
  H    14    1    -0.0101142100    5.5162228000    0.0000000000        
[5D]
[7F]
[GTO]
  1  0
   s    12 1.00
  0.114200D+05  0.172695D-04
  0.171200D+04  0.134411D-03
  0.389300D+03  0.694561D-03
  0.110000D+03  0.278531D-02
  0.355700D+02  0.863457D-02
  0.125400D+02  0.199805D-01
  0.464400D+01  0.262908D-01
  0.129300D+01 -0.243845D-01
  0.511800D+00 -0.924934D-01
  0.178700D+00 -0.339683D+00
  0.246240D-01  0.345111D+00
  0.112530D-01  0.752750D+00
   s    10 1.00
  0.114200D+05  0.523000D-03
  0.171200D+04  0.404500D-02
  0.389300D+03  0.207750D-01
  0.110000D+03  0.807269D-01
  0.355700D+02  0.233074D+00
  0.125400D+02  0.433501D+00
  0.464400D+01  0.347472D+00
  0.129300D+01  0.412620D-01
  0.511800D+00 -0.850799D-02
  0.178700D+00  0.238400D-02
   s    10 1.00
  0.114200D+05 -0.115000D-03
  0.171200D+04 -0.895000D-03
  0.389300D+03 -0.462400D-02
  0.110000D+03 -0.185280D-01
  0.355700D+02 -0.573390D-01
  0.125400D+02 -0.132076D+00
  0.464400D+01 -0.172510D+00
  0.129300D+01  0.151814D+00
  0.511800D+00  0.599944D+00
  0.178700D+00  0.387462D+00
   s     1 1.00
  0.129300D+01  0.100000D+01
   s     1 1.00
  0.178700D+00  0.100000D+01
   p     5 1.00
  0.266300D+02  0.146700D-01
  0.594800D+01  0.917640D-01
  0.174200D+01  0.298683D+00
  0.555000D+00  0.498487D+00
  0.172500D+00  0.337023D+00
   p     1 1.00
  0.174200D+01  0.100000D+01
   p     1 1.00
  0.555000D+00  0.100000D+01
   d     1 1.00
  0.165400D+01  0.100000D+01
   d     1 1.00
  0.469000D+00  0.100000D+01
   f     1 1.00
  0.109300D+01  0.100000D+01
  
  2  0
   s    10 1.00
  0.823600D+04  0.531000D-03
  0.123500D+04  0.410800D-02
  0.280800D+03  0.210870D-01
  0.792700D+02  0.818530D-01
  0.255900D+02  0.234817D+00
  0.899700D+01  0.434401D+00
  0.331900D+01  0.346129D+00
  0.905900D+00  0.393780D-01
  0.364300D+00 -0.898300D-02
  0.128500D+00  0.238500D-02
   s    10 1.00
  0.823600D+04 -0.113000D-03
  0.123500D+04 -0.878000D-03
  0.280800D+03 -0.454000D-02
  0.792700D+02 -0.181330D-01
  0.255900D+02 -0.557600D-01
  0.899700D+01 -0.126895D+00
  0.331900D+01 -0.170352D+00
  0.905900D+00  0.140382D+00
  0.364300D+00  0.598684D+00
  0.128500D+00  0.395389D+00
   s     1 1.00
  0.905900D+00  0.100000D+01
   s     1 1.00
  0.364300D+00  0.100000D+01
   p     5 1.00
  0.187100D+02  0.140310D-01
  0.413300D+01  0.868660D-01
  0.120000D+01  0.290216D+00
  0.382700D+00  0.501008D+00
  0.120900D+00  0.343406D+00
   p     1 1.00
  0.382700D+00  0.100000D+01
   p     1 1.00
  0.120900D+00  0.100000D+01
   d     1 1.00
  0.109700D+01  0.100000D+01
   d     1 1.00
  0.318000D+00  0.100000D+01
   f     1 1.00
  0.761000D+00  0.100000D+01
  
  3  0
   s    10 1.00
  0.823600D+04  0.531000D-03
  0.123500D+04  0.410800D-02
  0.280800D+03  0.210870D-01
  0.792700D+02  0.818530D-01
  0.255900D+02  0.234817D+00
  0.899700D+01  0.434401D+00
  0.331900D+01  0.346129D+00
  0.905900D+00  0.393780D-01
  0.364300D+00 -0.898300D-02
  0.128500D+00  0.238500D-02
   s    10 1.00
  0.823600D+04 -0.113000D-03
  0.123500D+04 -0.878000D-03
  0.280800D+03 -0.454000D-02
  0.792700D+02 -0.181330D-01
  0.255900D+02 -0.557600D-01
  0.899700D+01 -0.126895D+00
  0.331900D+01 -0.170352D+00
  0.905900D+00  0.140382D+00
  0.364300D+00  0.598684D+00
  0.128500D+00  0.395389D+00
   s     1 1.00
  0.905900D+00  0.100000D+01
   s     1 1.00
  0.364300D+00  0.100000D+01
   p     5 1.00
  0.187100D+02  0.140310D-01
  0.413300D+01  0.868660D-01
  0.120000D+01  0.290216D+00
  0.382700D+00  0.501008D+00
  0.120900D+00  0.343406D+00
   p     1 1.00
  0.382700D+00  0.100000D+01
   p     1 1.00
  0.120900D+00  0.100000D+01
   d     1 1.00
  0.109700D+01  0.100000D+01
   d     1 1.00
  0.318000D+00  0.100000D+01
   f     1 1.00
  0.761000D+00  0.100000D+01
  
  4  0
   s    10 1.00
  0.823600D+04  0.531000D-03
  0.123500D+04  0.410800D-02
  0.280800D+03  0.210870D-01
  0.792700D+02  0.818530D-01
  0.255900D+02  0.234817D+00
  0.899700D+01  0.434401D+00
  0.331900D+01  0.346129D+00
  0.905900D+00  0.393780D-01
  0.364300D+00 -0.898300D-02
  0.128500D+00  0.238500D-02
   s    10 1.00
  0.823600D+04 -0.113000D-03
  0.123500D+04 -0.878000D-03
  0.280800D+03 -0.454000D-02
  0.792700D+02 -0.181330D-01
  0.255900D+02 -0.557600D-01
  0.899700D+01 -0.126895D+00
  0.331900D+01 -0.170352D+00
  0.905900D+00  0.140382D+00
  0.364300D+00  0.598684D+00
  0.128500D+00  0.395389D+00
   s     1 1.00
  0.905900D+00  0.100000D+01
   s     1 1.00
  0.364300D+00  0.100000D+01
   p     5 1.00
  0.187100D+02  0.140310D-01
  0.413300D+01  0.868660D-01
  0.120000D+01  0.290216D+00
  0.382700D+00  0.501008D+00
  0.120900D+00  0.343406D+00
   p     1 1.00
  0.382700D+00  0.100000D+01
   p     1 1.00
  0.120900D+00  0.100000D+01
   d     1 1.00
  0.109700D+01  0.100000D+01
   d     1 1.00
  0.318000D+00  0.100000D+01
   f     1 1.00
  0.761000D+00  0.100000D+01
  
  5  0
   s    10 1.00
  0.823600D+04  0.531000D-03
  0.123500D+04  0.410800D-02
  0.280800D+03  0.210870D-01
  0.792700D+02  0.818530D-01
  0.255900D+02  0.234817D+00
  0.899700D+01  0.434401D+00
  0.331900D+01  0.346129D+00
  0.905900D+00  0.393780D-01
  0.364300D+00 -0.898300D-02
  0.128500D+00  0.238500D-02
   s    10 1.00
  0.823600D+04 -0.113000D-03
  0.123500D+04 -0.878000D-03
  0.280800D+03 -0.454000D-02
  0.792700D+02 -0.181330D-01
  0.255900D+02 -0.557600D-01
  0.899700D+01 -0.126895D+00
  0.331900D+01 -0.170352D+00
  0.905900D+00  0.140382D+00
  0.364300D+00  0.598684D+00
  0.128500D+00  0.395389D+00
   s     1 1.00
  0.905900D+00  0.100000D+01
   s     1 1.00
  0.364300D+00  0.100000D+01
   p     5 1.00
  0.187100D+02  0.140310D-01
  0.413300D+01  0.868660D-01
  0.120000D+01  0.290216D+00
  0.382700D+00  0.501008D+00
  0.120900D+00  0.343406D+00
   p     1 1.00
  0.382700D+00  0.100000D+01
   p     1 1.00
  0.120900D+00  0.100000D+01
   d     1 1.00
  0.109700D+01  0.100000D+01
   d     1 1.00
  0.318000D+00  0.100000D+01
   f     1 1.00
  0.761000D+00  0.100000D+01
  
  6  0
   s    10 1.00
  0.823600D+04  0.531000D-03
  0.123500D+04  0.410800D-02
  0.280800D+03  0.210870D-01
  0.792700D+02  0.818530D-01
  0.255900D+02  0.234817D+00
  0.899700D+01  0.434401D+00
  0.331900D+01  0.346129D+00
  0.905900D+00  0.393780D-01
  0.364300D+00 -0.898300D-02
  0.128500D+00  0.238500D-02
   s    10 1.00
  0.823600D+04 -0.113000D-03
  0.123500D+04 -0.878000D-03
  0.280800D+03 -0.454000D-02
  0.792700D+02 -0.181330D-01
  0.255900D+02 -0.557600D-01
  0.899700D+01 -0.126895D+00
  0.331900D+01 -0.170352D+00
  0.905900D+00  0.140382D+00
  0.364300D+00  0.598684D+00
  0.128500D+00  0.395389D+00
   s     1 1.00
  0.905900D+00  0.100000D+01
   s     1 1.00
  0.364300D+00  0.100000D+01
   p     5 1.00
  0.187100D+02  0.140310D-01
  0.413300D+01  0.868660D-01
  0.120000D+01  0.290216D+00
  0.382700D+00  0.501008D+00
  0.120900D+00  0.343406D+00
   p     1 1.00
  0.382700D+00  0.100000D+01
   p     1 1.00
  0.120900D+00  0.100000D+01
   d     1 1.00
  0.109700D+01  0.100000D+01
   d     1 1.00
  0.318000D+00  0.100000D+01
   f     1 1.00
  0.761000D+00  0.100000D+01
  
  7  0
   s    10 1.00
  0.823600D+04  0.531000D-03
  0.123500D+04  0.410800D-02
  0.280800D+03  0.210870D-01
  0.792700D+02  0.818530D-01
  0.255900D+02  0.234817D+00
  0.899700D+01  0.434401D+00
  0.331900D+01  0.346129D+00
  0.905900D+00  0.393780D-01
  0.364300D+00 -0.898300D-02
  0.128500D+00  0.238500D-02
   s    10 1.00
  0.823600D+04 -0.113000D-03
  0.123500D+04 -0.878000D-03
  0.280800D+03 -0.454000D-02
  0.792700D+02 -0.181330D-01
  0.255900D+02 -0.557600D-01
  0.899700D+01 -0.126895D+00
  0.331900D+01 -0.170352D+00
  0.905900D+00  0.140382D+00
  0.364300D+00  0.598684D+00
  0.128500D+00  0.395389D+00
   s     1 1.00
  0.905900D+00  0.100000D+01
   s     1 1.00
  0.364300D+00  0.100000D+01
   p     5 1.00
  0.187100D+02  0.140310D-01
  0.413300D+01  0.868660D-01
  0.120000D+01  0.290216D+00
  0.382700D+00  0.501008D+00
  0.120900D+00  0.343406D+00
   p     1 1.00
  0.382700D+00  0.100000D+01
   p     1 1.00
  0.120900D+00  0.100000D+01
   d     1 1.00
  0.109700D+01  0.100000D+01
   d     1 1.00
  0.318000D+00  0.100000D+01
   f     1 1.00
  0.761000D+00  0.100000D+01
  
  8  0
   s     4 1.00
  0.130100D+02  0.196850D-01
  0.196200D+01  0.137977D+00
  0.444600D+00  0.478148D+00
  0.122000D+00  0.501240D+00
   s     1 1.00
  0.122000D+00  0.100000D+01
   p     1 1.00
  0.727000D+00  0.100000D+01
  
  9  0
   s     4 1.00
  0.130100D+02  0.196850D-01
  0.196200D+01  0.137977D+00
  0.444600D+00  0.478148D+00
  0.122000D+00  0.501240D+00
   s     1 1.00
  0.122000D+00  0.100000D+01
   p     1 1.00
  0.727000D+00  0.100000D+01
  
 10  0
   s     4 1.00
  0.130100D+02  0.196850D-01
  0.196200D+01  0.137977D+00
  0.444600D+00  0.478148D+00
  0.122000D+00  0.501240D+00
   s     1 1.00
  0.122000D+00  0.100000D+01
   p     1 1.00
  0.727000D+00  0.100000D+01
  
 11  0
   s     4 1.00
  0.130100D+02  0.196850D-01
  0.196200D+01  0.137977D+00
  0.444600D+00  0.478148D+00
  0.122000D+00  0.501240D+00
   s     1 1.00
  0.122000D+00  0.100000D+01
   p     1 1.00
  0.727000D+00  0.100000D+01
  
 12  0
   s     4 1.00
  0.130100D+02  0.196850D-01
  0.196200D+01  0.137977D+00
  0.444600D+00  0.478148D+00
  0.122000D+00  0.501240D+00
   s     1 1.00
  0.122000D+00  0.100000D+01
   p     1 1.00
  0.727000D+00  0.100000D+01
  
 13  0
   s     4 1.00
  0.130100D+02  0.196850D-01
  0.196200D+01  0.137977D+00
  0.444600D+00  0.478148D+00
  0.122000D+00  0.501240D+00
   s     1 1.00
  0.122000D+00  0.100000D+01
   p     1 1.00
  0.727000D+00  0.100000D+01
  
 14  0
   s     4 1.00
  0.130100D+02  0.196850D-01
  0.196200D+01  0.137977D+00
  0.444600D+00  0.478148D+00
  0.122000D+00  0.501240D+00
   s     1 1.00
  0.122000D+00  0.100000D+01
   p     1 1.00
  0.727000D+00  0.100000D+01
  
[MO]
 Sym= __1_A__
 Ene=  0.000000000000000E+000
 Spin= Alpha
 Occup=    2.00000000000000     
                     1  1.445679135537189E-004
                     2  0.998338686820624     
                     3 -2.629725873080432E-003
                     4  1.838804541635375E-003
                     5  6.605702942727613E-003
                     6  2.831216724026841E-003
                     7  5.959611669917490E-003
                     8  0.000000000000000E+000
                     9 -6.941858026625165E-004
                    10 -7.267837781213102E-004
                    11  0.000000000000000E+000
                    12 -2.484366120570309E-003
                    13 -1.910909733102085E-003
                    14  0.000000000000000E+000
                    15 -2.683085286250217E-005
                    16  0.000000000000000E+000
                    17  0.000000000000000E+000
                    18 -1.533118496699081E-004
                    19 -5.780898112623139E-005
                    20  8.905476250712427E-005
                    21  0.000000000000000E+000
                    22  0.000000000000000E+000
                    23 -2.059004589759710E-004
                    24  5.024901270277961E-004
                    25  0.000000000000000E+000
                    26 -5.710135003842098E-006
                    27 -4.864476895720326E-005
                    28  0.000000000000000E+000
                    29  0.000000000000000E+000
                    30  3.802606378491994E-005
                    31 -1.077446151240376E-004
                    32 -4.015539264529146E-004
                    33  1.368741305635729E-004
                    34  3.148604940584330E-004
                    35 -5.064843638624138E-005
                    36 -4.951842361329465E-005
                    37 -2.733064720398655E-003
                    38  0.000000000000000E+000
                    39  3.752213857947600E-004
                    40  2.006511557606848E-004
                    41  0.000000000000000E+000
                    42 -2.060845941949303E-003
                    43  5.142232547941075E-003
                    44  0.000000000000000E+000
                    45  1.502569465345153E-006
                    46  0.000000000000000E+000
                    47  0.000000000000000E+000
                    48 -1.375305179322528E-004
                    49  2.041520613221637E-005
                    50 -2.009514152532100E-004
                    51  0.000000000000000E+000
                    52  0.000000000000000E+000
                    53  4.842351670248730E-005
                    54  7.753566185459134E-004
                    55  0.000000000000000E+000
                    56 -3.048887735439895E-006
                    57 -7.048577506371734E-005
                    58  0.000000000000000E+000
                    59  0.000000000000000E+000
                    60  2.476778840146616E-005
                    61 -1.224477510838332E-004
                    62 -5.640343883590237E-004
                    63 -2.260659811335101E-003
                    64 -8.556544118984362E-005
                    65  2.271237583790578E-003
                    66 -5.261967750207577E-004
                    67  1.625927048582313E-004
                    68  0.000000000000000E+000
                    69  3.887421002477613E-004
                    70  8.926062973123871E-004
                    71  0.000000000000000E+000
                    72 -1.693059993554360E-003
                    73  6.831687613335668E-004
                    74  0.000000000000000E+000
                    75 -4.299768156921138E-005
                    76  0.000000000000000E+000
                    77  0.000000000000000E+000
                    78 -6.496419076970760E-005
                    79 -2.011700964779984E-005
                    80 -1.326564846330243E-004
                    81  0.000000000000000E+000
                    82  0.000000000000000E+000
                    83  4.174786692701768E-005
                    84  1.732203926329148E-005
                    85  0.000000000000000E+000
                    86  8.195769465677122E-006
                    87 -4.619315836231457E-005
                    88  0.000000000000000E+000
                    89  0.000000000000000E+000
                    90 -2.475166638400711E-005
                    91 -1.538190059752943E-004
                    92 -1.838141796451712E-004
                    93 -6.718032508096023E-004
                    94  1.555494824669573E-004
                    95 -4.476811359289684E-005
                    96  2.256519704676872E-004
                    97  9.060119389254847E-006
                    98  0.000000000000000E+000
                    99  3.377750959074309E-004
                   100  3.991345550359488E-004
                   101  0.000000000000000E+000
                   102  6.620720665809439E-004
                   103 -1.784938948477557E-003
                   104  0.000000000000000E+000
                   105 -1.199564722800399E-005
                   106  0.000000000000000E+000
                   107  0.000000000000000E+000
                   108 -4.675700727955758E-005
                   109 -1.331989089214292E-005
                   110  8.421317314448028E-005
                   111  0.000000000000000E+000
                   112  0.000000000000000E+000
                   113 -1.677920398067668E-004
                   114  8.497779412284533E-005
                   115  0.000000000000000E+000
                   116 -1.991164480904889E-005
                   117 -2.264303921303391E-005
                   118  0.000000000000000E+000
                   119  0.000000000000000E+000
                   120 -1.218855375882454E-005
                   121 -3.731620855031191E-005
                   122 -2.429043660640014E-004
                   123 -5.865990091238276E-004
                   124  1.647373275279187E-004
                   125  3.312362991968976E-004
                   126 -3.312951294220112E-005
                   127 -3.434180405898474E-004
                   128  0.000000000000000E+000
                   129  2.463847283342507E-004
                   130  6.536755334381585E-004
                   131  0.000000000000000E+000
                   132  3.808244530122758E-004
                   133  2.029871021958409E-003
                   134  0.000000000000000E+000
                   135  1.320900395476125E-005
                   136  0.000000000000000E+000
                   137  0.000000000000000E+000
                   138  4.564267629249858E-005
                   139 -1.699669150216403E-006
                   140  2.049011298143635E-004
                   141  0.000000000000000E+000
                   142  0.000000000000000E+000
                   143  4.049957224249868E-004
                   144  2.403498976108785E-004
                   145  0.000000000000000E+000
                   146 -1.256408110701277E-005
                   147 -6.525170341435551E-005
                   148  0.000000000000000E+000
                   149  0.000000000000000E+000
                   150 -1.352848334042310E-005
                   151 -5.323202721526958E-005
                   152 -1.299223675355892E-004
                   153 -3.523632422441523E-004
                   154  5.521332223461103E-005
                   155  1.878301080692302E-004
                   156  1.037871277819122E-005
                   157 -9.001852729822546E-005
                   158  0.000000000000000E+000
                   159  1.165573478366011E-005
                   160  6.448486942359184E-005
                   161  0.000000000000000E+000
                   162  7.288442643303087E-004
                   163 -3.598604855479102E-004
                   164  0.000000000000000E+000
                   165  1.937538103454074E-006
                   166  0.000000000000000E+000
                   167  0.000000000000000E+000
                   168  3.168496517279418E-006
                   169  9.641842951216722E-006
                   170  1.082634890545437E-004
                   171  0.000000000000000E+000
                   172  0.000000000000000E+000
                   173  5.723228994935706E-005
                   174  2.644675136776232E-005
                   175  0.000000000000000E+000
                   176  3.024933043270992E-006
                   177 -1.514850256012889E-005
                   178  0.000000000000000E+000
                   179  0.000000000000000E+000
                   180 -2.072762322015689E-005
                   181 -3.056045336747161E-005
                   182 -1.339945081352560E-004
                   183 -3.898647561111479E-004
                   184  3.315676414672063E-005
                   185  1.842229455458407E-004
                   186 -5.059020441398836E-005
                   187 -6.477882326172422E-005
                   188  0.000000000000000E+000
                   189  2.741574797284260E-004
                   190  1.263036407914423E-004
                   191  0.000000000000000E+000
                   192  1.345453941222389E-003
                   193 -3.510468572926352E-004
                   194  0.000000000000000E+000
                   195  1.808907379937101E-006
                   196  0.000000000000000E+000
                   197  0.000000000000000E+000
                   198 -3.769169632847566E-006
                   199  4.068064896665408E-006
                   200 -7.211515402367218E-006
                   201  0.000000000000000E+000
                   202  0.000000000000000E+000
                   203 -8.345808918960168E-005
                   204 -2.035862509066546E-004
                   205  0.000000000000000E+000
                   206 -1.057602074815097E-005
                   207 -4.589745021655534E-006
                   208  0.000000000000000E+000
                   209  0.000000000000000E+000
                   210  7.443161202353904E-006
                   211 -2.856281612312806E-006
                   212  1.062455241577728E-005
                   213 -2.667723909815586E-005
                   214 -1.247868058367789E-006
                   215 -7.812131405110381E-007
                   216  0.000000000000000E+000
                   217 -8.609166708484701E-004
                   218 -6.647885937124014E-004
                   219 -2.392997245416954E-004
                   220  6.461059575806771E-005
                   221  0.000000000000000E+000
                   222 -2.111790421108370E-004
                   223 -5.552860695947066E-004
                   224  2.469208271045562E-005
                   225 -5.824721195227812E-005
                   226  0.000000000000000E+000
                   227  6.804959214829601E-005
                   228 -7.138701774717445E-004
                   229 -4.584401316901053E-005
                   230 -1.343204738667065E-005
                   231  0.000000000000000E+000
                   232  4.281674590841288E-006
                   233 -5.385748405990941E-004
                   234  1.250137492618812E-005
                   235 -3.572645270729874E-006
                   236  0.000000000000000E+000
                   237  7.565663614359724E-006
                   238 -3.727844136138861E-004
                   239 -6.016415668480328E-006
                   240 -1.504011379092452E-006
                   241  0.000000000000000E+000
                   242 -6.451011613931754E-005
                   243  9.932601696120157E-005
                   244  1.982070266474368E-007
                   245  3.166713872984311E-005
                   246  0.000000000000000E+000
 Sym= __2_A__
 Ene=  0.000000000000000E+000
 Spin= Alpha
 Occup=    2.00000000000000     
                     1  1.564447118823730E-005
                     2  2.822316113243718E-004
                     3 -3.565986896725454E-003
                     4 -9.748588695599761E-005
                     5 -1.474174109869585E-003
                     6  9.769462826486222E-004
                     7 -3.874032231217682E-003
                     8  0.000000000000000E+000
                     9 -9.141479190495592E-006
                    10  8.645801221047852E-005
                    11  0.000000000000000E+000
                    12 -3.417719018814488E-005
                    13  2.323192085165051E-004
                    14  0.000000000000000E+000
                    15 -1.831441145618801E-005
                    16  0.000000000000000E+000
                    17  0.000000000000000E+000
                    18  8.006559731330093E-005
                    19 -3.337137676237782E-005
                    20  1.472107553037810E-004
                    21  0.000000000000000E+000
                    22  0.000000000000000E+000
                    23 -2.909897523014816E-005
                    24  1.555132167647919E-004
                    25  0.000000000000000E+000
                    26  1.256878414157703E-005
                    27 -8.162682653691494E-005
                    28  0.000000000000000E+000
                    29  0.000000000000000E+000
                    30  7.355604951099366E-005
                    31 -1.347471465406067E-004
                    32  -1.00074987087109     
                    33 -9.316050867311109E-003
                    34 -2.841215357640267E-003
                    35  8.126689552422905E-003
                    36  3.947210652609408E-004
                    37  4.432705669512101E-003
                    38  0.000000000000000E+000
                    39  2.205764820654158E-004
                    40 -3.710575099875756E-004
                    41  0.000000000000000E+000
                    42 -4.163042907653706E-005
                    43 -4.452823973882822E-003
                    44  0.000000000000000E+000
                    45  5.178566950924587E-004
                    46  0.000000000000000E+000
                    47  0.000000000000000E+000
                    48  2.104952405675120E-004
                    49 -5.037048695307313E-005
                    50 -5.620721253495998E-004
                    51  0.000000000000000E+000
                    52  0.000000000000000E+000
                    53  6.906510558611822E-004
                    54  4.867876957704946E-004
                    55  0.000000000000000E+000
                    56 -2.205960499145638E-005
                    57 -9.934341894201694E-005
                    58  0.000000000000000E+000
                    59  0.000000000000000E+000
                    60  4.320732275758369E-005
                    61 -3.762756698437946E-004
                    62 -1.431056613664834E-002
                    63  2.274347449443794E-003
                    64  2.073458359445373E-004
                    65 -2.657168236134484E-003
                    66  1.227830236930887E-004
                    67 -3.483869935625439E-004
                    68  0.000000000000000E+000
                    69 -4.461143836904082E-004
                    70 -1.424249711659210E-004
                    71  0.000000000000000E+000
                    72  2.044385035770791E-003
                    73 -2.534294062802196E-004
                    74  0.000000000000000E+000
                    75 -3.869453115119972E-005
                    76  0.000000000000000E+000
                    77  0.000000000000000E+000
                    78  2.877737195340570E-005
                    79 -5.793625357816611E-006
                    80  4.182807393909809E-004
                    81  0.000000000000000E+000
                    82  0.000000000000000E+000
                    83  7.146569023821540E-004
                    84  2.375949954042254E-004
                    85  0.000000000000000E+000
                    86 -3.124383690334782E-005
                    87  5.660795787397068E-005
                    88  0.000000000000000E+000
                    89  0.000000000000000E+000
                    90 -5.369968875116957E-005
                    91 -1.535610762695387E-004
                    92 -1.849752813226337E-002
                    93  2.363358646530955E-003
                    94  3.000086981812323E-004
                    95 -3.297625685452475E-003
                    96 -5.618360225403664E-004
                    97 -5.413391225691230E-004
                    98  0.000000000000000E+000
                    99  9.968650310893637E-004
                   100  4.400864614789842E-006
                   101  0.000000000000000E+000
                   102 -1.803567853525387E-003
                   103  5.122341768806102E-005
                   104  0.000000000000000E+000
                   105 -2.279233700890583E-005
                   106  0.000000000000000E+000
                   107  0.000000000000000E+000
                   108  2.630626982160078E-005
                   109  2.779840122341710E-006
                   110  4.163453563276551E-004
                   111  0.000000000000000E+000
                   112  0.000000000000000E+000
                   113  4.000944046611328E-004
                   114 -2.430047097123120E-004
                   115  0.000000000000000E+000
                   116  3.689862130162669E-005
                   117  7.588461751574091E-005
                   118  0.000000000000000E+000
                   119  0.000000000000000E+000
                   120  1.064192818009000E-005
                   121 -1.346818982415184E-004
                   122 -1.658775459904137E-004
                   123  5.740897435643005E-004
                   124 -2.222913750126682E-004
                   125  1.012318809292883E-004
                   126  1.187993663022437E-005
                   127  5.667103960037054E-004
                   128  0.000000000000000E+000
                   129  6.271757048585830E-005
                   130 -6.249943907715291E-004
                   131  0.000000000000000E+000
                   132 -3.115421737269191E-004
                   133 -9.489148729939066E-004
                   134  0.000000000000000E+000
                   135 -1.706639989279866E-005
                   136  0.000000000000000E+000
                   137  0.000000000000000E+000
                   138  8.217348306372194E-007
                   139 -4.867463203130421E-005
                   140 -1.211424096083966E-004
                   141  0.000000000000000E+000
                   142  0.000000000000000E+000
                   143 -2.558278019555908E-004
                   144  9.721268614177213E-005
                   145  0.000000000000000E+000
                   146 -8.808791457509193E-006
                   147  3.422642313995163E-005
                   148  0.000000000000000E+000
                   149  0.000000000000000E+000
                   150  4.617374481119314E-005
                   151 -3.986372030235757E-005
                   152 -5.785422188293195E-004
                   153  5.098830083297347E-004
                   154 -2.296260897622777E-004
                   155  3.685343891373675E-005
                   156  7.321348547223406E-005
                   157  6.635159558005300E-004
                   158  0.000000000000000E+000
                   159 -1.422908108927328E-004
                   160 -5.737423328502961E-004