[Molden Format]
[Atoms] AU
  N     1    7    -0.1122210500   -4.3599459700    0.0000000000        
  C     2    6     0.0335913200   -1.8109490900    0.0000000000        
  C     3    6    -2.2887225800   -0.4296606100    0.0000000000        
  C     4    6     2.3335870100   -0.3906131500    0.0000000000        
  C     5    6    -2.2786527300    2.1540276000    0.0000000000        
  C     6    6     2.3003188500    2.1863690200    0.0000000000        
  C     7    6     0.0032261900    3.4879101500    0.0000000000        
  H     8    1    -7.9643882600   -9.6154280300    0.0000000000        
  H     9    1     1.6906756500   -5.1120232200    0.0000000000        
  H    10    1    -4.0236500100   -1.4744530400    0.0000000000        
  H    11    1     4.0964291800   -1.3976801700    0.0000000000        
  H    12    1    -4.0313054100    3.1764614600    0.0000000000        
  H    13    1     4.0386937700    3.2333879300    0.0000000000        
  H    14    1    -0.0101142100    5.5162228000    0.0000000000        
[5D]
[7F]
[GTO]
  1  0
   s    12 1.00
  0.114200D+05  0.172695D-04
  0.171200D+04  0.134411D-03
  0.389300D+03  0.694561D-03
  0.110000D+03  0.278531D-02
  0.355700D+02  0.863457D-02
  0.125400D+02  0.199805D-01
  0.464400D+01  0.262908D-01
  0.129300D+01 -0.243845D-01
  0.511800D+00 -0.924934D-01
  0.178700D+00 -0.339683D+00
  0.246240D-01  0.345111D+00
  0.112530D-01  0.752750D+00
   s    10 1.00
  0.114200D+05  0.523000D-03
  0.171200D+04  0.404500D-02
  0.389300D+03  0.207750D-01
  0.110000D+03  0.807269D-01
  0.355700D+02  0.233074D+00
  0.125400D+02  0.433501D+00
  0.464400D+01  0.347472D+00
  0.129300D+01  0.412620D-01
  0.511800D+00 -0.850799D-02
  0.178700D+00  0.238400D-02
   s    10 1.00
  0.114200D+05 -0.115000D-03
  0.171200D+04 -0.895000D-03
  0.389300D+03 -0.462400D-02
  0.110000D+03 -0.185280D-01
  0.355700D+02 -0.573390D-01
  0.125400D+02 -0.132076D+00
  0.464400D+01 -0.172510D+00
  0.129300D+01  0.151814D+00
  0.511800D+00  0.599944D+00
  0.178700D+00  0.387462D+00
   s     1 1.00
  0.129300D+01  0.100000D+01
   s     1 1.00
  0.178700D+00  0.100000D+01
   p     5 1.00
  0.266300D+02  0.146700D-01
  0.594800D+01  0.917640D-01
  0.174200D+01  0.298683D+00
  0.555000D+00  0.498487D+00
  0.172500D+00  0.337023D+00
   p     1 1.00
  0.174200D+01  0.100000D+01
   p     1 1.00
  0.555000D+00  0.100000D+01
   d     1 1.00
  0.165400D+01  0.100000D+01
   d     1 1.00
  0.469000D+00  0.100000D+01
   f     1 1.00
  0.109300D+01  0.100000D+01
  
  2  0
   s    10 1.00
  0.823600D+04  0.531000D-03
  0.123500D+04  0.410800D-02
  0.280800D+03  0.210870D-01
  0.792700D+02  0.818530D-01
  0.255900D+02  0.234817D+00
  0.899700D+01  0.434401D+00
  0.331900D+01  0.346129D+00
  0.905900D+00  0.393780D-01
  0.364300D+00 -0.898300D-02
  0.128500D+00  0.238500D-02
   s    10 1.00
  0.823600D+04 -0.113000D-03
  0.123500D+04 -0.878000D-03
  0.280800D+03 -0.454000D-02
  0.792700D+02 -0.181330D-01
  0.255900D+02 -0.557600D-01
  0.899700D+01 -0.126895D+00
  0.331900D+01 -0.170352D+00
  0.905900D+00  0.140382D+00
  0.364300D+00  0.598684D+00
  0.128500D+00  0.395389D+00
   s     1 1.00
  0.905900D+00  0.100000D+01
   s     1 1.00
  0.364300D+00  0.100000D+01
   p     5 1.00
  0.187100D+02  0.140310D-01
  0.413300D+01  0.868660D-01
  0.120000D+01  0.290216D+00
  0.382700D+00  0.501008D+00
  0.120900D+00  0.343406D+00
   p     1 1.00
  0.382700D+00  0.100000D+01
   p     1 1.00
  0.120900D+00  0.100000D+01
   d     1 1.00
  0.109700D+01  0.100000D+01
   d     1 1.00
  0.318000D+00  0.100000D+01
   f     1 1.00
  0.761000D+00  0.100000D+01
  
  3  0
   s    10 1.00
  0.823600D+04  0.531000D-03
  0.123500D+04  0.410800D-02
  0.280800D+03  0.210870D-01
  0.792700D+02  0.818530D-01
  0.255900D+02  0.234817D+00
  0.899700D+01  0.434401D+00
  0.331900D+01  0.346129D+00
  0.905900D+00  0.393780D-01
  0.364300D+00 -0.898300D-02
  0.128500D+00  0.238500D-02
   s    10 1.00
  0.823600D+04 -0.113000D-03
  0.123500D+04 -0.878000D-03
  0.280800D+03 -0.454000D-02
  0.792700D+02 -0.181330D-01
  0.255900D+02 -0.557600D-01
  0.899700D+01 -0.126895D+00
  0.331900D+01 -0.170352D+00
  0.905900D+00  0.140382D+00
  0.364300D+00  0.598684D+00
  0.128500D+00  0.395389D+00
   s     1 1.00
  0.905900D+00  0.100000D+01
   s     1 1.00
  0.364300D+00  0.100000D+01
   p     5 1.00
  0.187100D+02  0.140310D-01
  0.413300D+01  0.868660D-01
  0.120000D+01  0.290216D+00
  0.382700D+00  0.501008D+00
  0.120900D+00  0.343406D+00
   p     1 1.00
  0.382700D+00  0.100000D+01
   p     1 1.00
  0.120900D+00  0.100000D+01
   d     1 1.00
  0.109700D+01  0.100000D+01
   d     1 1.00
  0.318000D+00  0.100000D+01
   f     1 1.00
  0.761000D+00  0.100000D+01
  
  4  0
   s    10 1.00
  0.823600D+04  0.531000D-03
  0.123500D+04  0.410800D-02
  0.280800D+03  0.210870D-01
  0.792700D+02  0.818530D-01
  0.255900D+02  0.234817D+00
  0.899700D+01  0.434401D+00
  0.331900D+01  0.346129D+00
  0.905900D+00  0.393780D-01
  0.364300D+00 -0.898300D-02
  0.128500D+00  0.238500D-02
   s    10 1.00
  0.823600D+04 -0.113000D-03
  0.123500D+04 -0.878000D-03
  0.280800D+03 -0.454000D-02
  0.792700D+02 -0.181330D-01
  0.255900D+02 -0.557600D-01
  0.899700D+01 -0.126895D+00
  0.331900D+01 -0.170352D+00
  0.905900D+00  0.140382D+00
  0.364300D+00  0.598684D+00
  0.128500D+00  0.395389D+00
   s     1 1.00
  0.905900D+00  0.100000D+01
   s     1 1.00
  0.364300D+00  0.100000D+01
   p     5 1.00
  0.187100D+02  0.140310D-01
  0.413300D+01  0.868660D-01
  0.120000D+01  0.290216D+00
  0.382700D+00  0.501008D+00
  0.120900D+00  0.343406D+00
   p     1 1.00
  0.382700D+00  0.100000D+01
   p     1 1.00
  0.120900D+00  0.100000D+01
   d     1 1.00
  0.109700D+01  0.100000D+01
   d     1 1.00
  0.318000D+00  0.100000D+01
   f     1 1.00
  0.761000D+00  0.100000D+01
  
  5  0
   s    10 1.00
  0.823600D+04  0.531000D-03
  0.123500D+04  0.410800D-02
  0.280800D+03  0.210870D-01
  0.792700D+02  0.818530D-01
  0.255900D+02  0.234817D+00
  0.899700D+01  0.434401D+00
  0.331900D+01  0.346129D+00
  0.905900D+00  0.393780D-01
  0.364300D+00 -0.898300D-02
  0.128500D+00  0.238500D-02
   s    10 1.00
  0.823600D+04 -0.113000D-03
  0.123500D+04 -0.878000D-03
  0.280800D+03 -0.454000D-02
  0.792700D+02 -0.181330D-01
  0.255900D+02 -0.557600D-01
  0.899700D+01 -0.126895D+00
  0.331900D+01 -0.170352D+00
  0.905900D+00  0.140382D+00
  0.364300D+00  0.598684D+00
  0.128500D+00  0.395389D+00
   s     1 1.00
  0.905900D+00  0.100000D+01
   s     1 1.00
  0.364300D+00  0.100000D+01
   p     5 1.00
  0.187100D+02  0.140310D-01
  0.413300D+01  0.868660D-01
  0.120000D+01  0.290216D+00
  0.382700D+00  0.501008D+00
  0.120900D+00  0.343406D+00
   p     1 1.00
  0.382700D+00  0.100000D+01
   p     1 1.00
  0.120900D+00  0.100000D+01
   d     1 1.00
  0.109700D+01  0.100000D+01
   d     1 1.00
  0.318000D+00  0.100000D+01
   f     1 1.00
  0.761000D+00  0.100000D+01
  
  6  0
   s    10 1.00
  0.823600D+04  0.531000D-03
  0.123500D+04  0.410800D-02
  0.280800D+03  0.210870D-01
  0.792700D+02  0.818530D-01
  0.255900D+02  0.234817D+00
  0.899700D+01  0.434401D+00
  0.331900D+01  0.346129D+00
  0.905900D+00  0.393780D-01
  0.364300D+00 -0.898300D-02
  0.128500D+00  0.238500D-02
   s    10 1.00
  0.823600D+04 -0.113000D-03
  0.123500D+04 -0.878000D-03
  0.280800D+03 -0.454000D-02
  0.792700D+02 -0.181330D-01
  0.255900D+02 -0.557600D-01
  0.899700D+01 -0.126895D+00
  0.331900D+01 -0.170352D+00
  0.905900D+00  0.140382D+00
  0.364300D+00  0.598684D+00
  0.128500D+00  0.395389D+00
   s     1 1.00
  0.905900D+00  0.100000D+01
   s     1 1.00
  0.364300D+00  0.100000D+01
   p     5 1.00
  0.187100D+02  0.140310D-01
  0.413300D+01  0.868660D-01
  0.120000D+01  0.290216D+00
  0.382700D+00  0.501008D+00
  0.120900D+00  0.343406D+00
   p     1 1.00
  0.382700D+00  0.100000D+01
   p     1 1.00
  0.120900D+00  0.100000D+01
   d     1 1.00
  0.109700D+01  0.100000D+01
   d     1 1.00
  0.318000D+00  0.100000D+01
   f     1 1.00
  0.761000D+00  0.100000D+01
  
  7  0
   s    10 1.00
  0.823600D+04  0.531000D-03
  0.123500D+04  0.410800D-02
  0.280800D+03  0.210870D-01
  0.792700D+02  0.818530D-01
  0.255900D+02  0.234817D+00
  0.899700D+01  0.434401D+00
  0.331900D+01  0.346129D+00
  0.905900D+00  0.393780D-01
  0.364300D+00 -0.898300D-02
  0.128500D+00  0.238500D-02
   s    10 1.00
  0.823600D+04 -0.113000D-03
  0.123500D+04 -0.878000D-03
  0.280800D+03 -0.454000D-02
  0.792700D+02 -0.181330D-01
  0.255900D+02 -0.557600D-01
  0.899700D+01 -0.126895D+00
  0.331900D+01 -0.170352D+00
  0.905900D+00  0.140382D+00
  0.364300D+00  0.598684D+00
  0.128500D+00  0.395389D+00
   s     1 1.00
  0.905900D+00  0.100000D+01
   s     1 1.00
  0.364300D+00  0.100000D+01
   p     5 1.00
  0.187100D+02  0.140310D-01
  0.413300D+01  0.868660D-01
  0.120000D+01  0.290216D+00
  0.382700D+00  0.501008D+00
  0.120900D+00  0.343406D+00
   p     1 1.00
  0.382700D+00  0.100000D+01
   p     1 1.00
  0.120900D+00  0.100000D+01
   d     1 1.00
  0.109700D+01  0.100000D+01
   d     1 1.00
  0.318000D+00  0.100000D+01
   f     1 1.00
  0.761000D+00  0.100000D+01
  
  8  0
   s     4 1.00
  0.130100D+02  0.196850D-01
  0.196200D+01  0.137977D+00
  0.444600D+00  0.478148D+00
  0.122000D+00  0.501240D+00
   s     1 1.00
  0.122000D+00  0.100000D+01
   p     1 1.00
  0.727000D+00  0.100000D+01
  
  9  0
   s     4 1.00
  0.130100D+02  0.196850D-01
  0.196200D+01  0.137977D+00
  0.444600D+00  0.478148D+00
  0.122000D+00  0.501240D+00
   s     1 1.00
  0.122000D+00  0.100000D+01
   p     1 1.00
  0.727000D+00  0.100000D+01
  
 10  0
   s     4 1.00
  0.130100D+02  0.196850D-01
  0.196200D+01  0.137977D+00
  0.444600D+00  0.478148D+00
  0.122000D+00  0.501240D+00
   s     1 1.00
  0.122000D+00  0.100000D+01
   p     1 1.00
  0.727000D+00  0.100000D+01
  
 11  0
   s     4 1.00
  0.130100D+02  0.196850D-01
  0.196200D+01  0.137977D+00
  0.444600D+00  0.478148D+00
  0.122000D+00  0.501240D+00
   s     1 1.00
  0.122000D+00  0.100000D+01
   p     1 1.00
  0.727000D+00  0.100000D+01
  
 12  0
   s     4 1.00
  0.130100D+02  0.196850D-01
  0.196200D+01  0.137977D+00
  0.444600D+00  0.478148D+00
  0.122000D+00  0.501240D+00
   s     1 1.00
  0.122000D+00  0.100000D+01
   p     1 1.00
  0.727000D+00  0.100000D+01
  
 13  0
   s     4 1.00
  0.130100D+02  0.196850D-01
  0.196200D+01  0.137977D+00
  0.444600D+00  0.478148D+00
  0.122000D+00  0.501240D+00
   s     1 1.00
  0.122000D+00  0.100000D+01
   p     1 1.00
  0.727000D+00  0.100000D+01
  
 14  0
   s     4 1.00
  0.130100D+02  0.196850D-01
  0.196200D+01  0.137977D+00
  0.444600D+00  0.478148D+00
  0.122000D+00  0.501240D+00
   s     1 1.00
  0.122000D+00  0.100000D+01
   p     1 1.00
  0.727000D+00  0.100000D+01
  
[MO]
 Sym= __1_A__
 Ene=  0.000000000000000E+000
 Spin= Alpha
 Occup=    2.00000000000000     
                     1  1.445679135538857E-004
                     2  0.998338686820623     
                     3 -2.629725873073494E-003
                     4  1.838804541635285E-003
                     5  6.605702942727160E-003
                     6  2.831216724032318E-003
                     7  5.959611669918066E-003
                     8  0.000000000000000E+000
                     9 -6.941858026623273E-004
                    10 -7.267837781213399E-004
                    11  0.000000000000000E+000
                    12 -2.484366120570415E-003
                    13 -1.910909733101602E-003
                    14  0.000000000000000E+000
                    15 -2.683085286259291E-005
                    16  0.000000000000000E+000
                    17  0.000000000000000E+000
                    18 -1.533118496698771E-004
                    19 -5.780898112613234E-005
                    20  8.905476250695484E-005
                    21  0.000000000000000E+000
                    22  0.000000000000000E+000
                    23 -2.059004589761766E-004
                    24  5.024901270285790E-004
                    25  0.000000000000000E+000
                    26 -5.710135003913678E-006
                    27 -4.864476895724569E-005
                    28  0.000000000000000E+000
                    29  0.000000000000000E+000
                    30  3.802606378504481E-005
                    31 -1.077446151240858E-004
                    32 -4.015539264559585E-004
                    33  1.368741305707523E-004
                    34  3.148604940583748E-004
                    35 -5.064843638677433E-005
                    36 -4.951842359069479E-005
                    37 -2.733064720400438E-003
                    38  0.000000000000000E+000
                    39  3.752213857937742E-004
                    40  2.006511557615097E-004
                    41  0.000000000000000E+000
                    42 -2.060845941956704E-003
                    43  5.142232547942010E-003
                    44  0.000000000000000E+000
                    45  1.502569465245791E-006
                    46  0.000000000000000E+000
                    47  0.000000000000000E+000
                    48 -1.375305179322334E-004
                    49  2.041520613275778E-005
                    50 -2.009514152535176E-004
                    51  0.000000000000000E+000
                    52  0.000000000000000E+000
                    53  4.842351670309350E-005
                    54  7.753566185471058E-004
                    55  0.000000000000000E+000
                    56 -3.048887735663266E-006
                    57 -7.048577506373372E-005
                    58  0.000000000000000E+000
                    59  0.000000000000000E+000
                    60  2.476778840148450E-005
                    61 -1.224477510837280E-004
                    62 -5.640343883607232E-004
                    63 -2.260659811344481E-003
                    64 -8.556544118965698E-005
                    65  2.271237583791319E-003
                    66 -5.261967750308788E-004
                    67  1.625927048639284E-004
                    68  0.000000000000000E+000
                    69  3.887421002484546E-004
                    70  8.926062973124618E-004
                    71  0.000000000000000E+000
                    72 -1.693059993554209E-003
                    73  6.831687613336419E-004
                    74  0.000000000000000E+000
                    75 -4.299768156905878E-005
                    76  0.000000000000000E+000
                    77  0.000000000000000E+000
                    78 -6.496419076978714E-005
                    79 -2.011700964741713E-005
                    80 -1.326564846327980E-004
                    81  0.000000000000000E+000
                    82  0.000000000000000E+000
                    83  4.174786692726826E-005
                    84  1.732203926391843E-005
                    85  0.000000000000000E+000
                    86  8.195769465768448E-006
                    87 -4.619315836238036E-005
                    88  0.000000000000000E+000
                    89  0.000000000000000E+000
                    90 -2.475166638406211E-005
                    91 -1.538190059751534E-004
                    92 -1.838141796452855E-004
                    93 -6.718032508009105E-004
                    94  1.555494824669076E-004
                    95 -4.476811359397569E-005
                    96  2.256519704570869E-004
                    97  9.060119373727294E-006
                    98  0.000000000000000E+000
                    99  3.377750959082532E-004
                   100  3.991345550375456E-004
                   101  0.000000000000000E+000
                   102  6.620720665820967E-004
                   103 -1.784938948475183E-003
                   104  0.000000000000000E+000
                   105 -1.199564722813310E-005
                   106  0.000000000000000E+000
                   107  0.000000000000000E+000
                   108 -4.675700727926828E-005
                   109 -1.331989089168105E-005
                   110  8.421317314430070E-005
                   111  0.000000000000000E+000
                   112  0.000000000000000E+000
                   113 -1.677920398069281E-004
                   114  8.497779412331550E-005
                   115  0.000000000000000E+000
                   116 -1.991164480894681E-005
                   117 -2.264303921290044E-005
                   118  0.000000000000000E+000
                   119  0.000000000000000E+000
                   120 -1.218855375891035E-005
                   121 -3.731620855040674E-005
                   122 -2.429043660640598E-004
                   123 -5.865990091228270E-004
                   124  1.647373275278891E-004
                   125  3.312362991971729E-004
                   126 -3.312951294056291E-005
                   127 -3.434180405903070E-004
                   128  0.000000000000000E+000
                   129  2.463847283340180E-004
                   130  6.536755334382797E-004
                   131  0.000000000000000E+000
                   132  3.808244530130635E-004
                   133  2.029871021959707E-003
                   134  0.000000000000000E+000
                   135  1.320900395475036E-005
                   136  0.000000000000000E+000
                   137  0.000000000000000E+000
                   138  4.564267629248050E-005
                   139 -1.699669150030319E-006
                   140  2.049011298143500E-004
                   141  0.000000000000000E+000
                   142  0.000000000000000E+000
                   143  4.049957224251876E-004
                   144  2.403498976112671E-004
                   145  0.000000000000000E+000
                   146 -1.256408110701430E-005
                   147 -6.525170341437479E-005
                   148  0.000000000000000E+000
                   149  0.000000000000000E+000
                   150 -1.352848334048044E-005
                   151 -5.323202721523642E-005
                   152 -1.299223675356892E-004
                   153 -3.523632422483772E-004
                   154  5.521332223476550E-005
                   155  1.878301080690357E-004
                   156  1.037871278040256E-005
                   157 -9.001852728984318E-005
                   158  0.000000000000000E+000
                   159  1.165573478343285E-005
                   160  6.448486942314521E-005
                   161  0.000000000000000E+000
                   162  7.288442643310812E-004
                   163 -3.598604855497620E-004
                   164  0.000000000000000E+000
                   165  1.937538103540893E-006
                   166  0.000000000000000E+000
                   167  0.000000000000000E+000
                   168  3.168496517552308E-006
                   169  9.641842951441928E-006
                   170  1.082634890547020E-004
                   171  0.000000000000000E+000
                   172  0.000000000000000E+000
                   173  5.723228994950408E-005
                   174  2.644675136786156E-005
                   175  0.000000000000000E+000
                   176  3.024933043260994E-006
                   177 -1.514850256018701E-005
                   178  0.000000000000000E+000
                   179  0.000000000000000E+000
                   180 -2.072762322020405E-005
                   181 -3.056045336757815E-005
                   182 -1.339945081353950E-004
                   183 -3.898647561106651E-004
                   184  3.315676414671135E-005
                   185  1.842229455457470E-004
                   186 -5.059020441532999E-005
                   187 -6.477882326266444E-005
                   188  0.000000000000000E+000
                   189  2.741574797286034E-004
                   190  1.263036407916046E-004
                   191  0.000000000000000E+000
                   192  1.345453941223596E-003
                   193 -3.510468572932065E-004
                   194  0.000000000000000E+000
                   195  1.808907379937296E-006
                   196  0.000000000000000E+000
                   197  0.000000000000000E+000
                   198 -3.769169632734960E-006
                   199  4.068064896752654E-006
                   200 -7.211515402447574E-006
                   201  0.000000000000000E+000
                   202  0.000000000000000E+000
                   203 -8.345808918960610E-005
                   204 -2.035862509066016E-004
                   205  0.000000000000000E+000
                   206 -1.057602074815677E-005
                   207 -4.589745021650852E-006
                   208  0.000000000000000E+000
                   209  0.000000000000000E+000
                   210  7.443161202331009E-006
                   211 -2.856281612338754E-006
                   212  1.062455241578962E-005
                   213 -2.667723909817737E-005
                   214 -1.247868058368154E-006
                   215 -7.812131405111251E-007
                   216  0.000000000000000E+000
                   217 -8.609166708422134E-004
                   218 -6.647885937161041E-004
                   219 -2.392997245421928E-004
                   220  6.461059575841820E-005
                   221  0.000000000000000E+000
                   222 -2.111790421081076E-004
                   223 -5.552860695946578E-004
                   224  2.469208271043724E-005
                   225 -5.824721195214131E-005
                   226  0.000000000000000E+000
                   227  6.804959214909886E-005
                   228 -7.138701774730082E-004
                   229 -4.584401316931745E-005
                   230 -1.343204738679978E-005
                   231  0.000000000000000E+000
                   232  4.281674588735367E-006
                   233 -5.385748405990346E-004
                   234  1.250137492610120E-005
                   235 -3.572645270693292E-006
                   236  0.000000000000000E+000
                   237  7.565663619825948E-006
                   238 -3.727844136150271E-004
                   239 -6.016415668740191E-006
                   240 -1.504011379114563E-006
                   241  0.000000000000000E+000
                   242 -6.451011614067115E-005
                   243  9.932601696160653E-005
                   244  1.982070266415612E-007
                   245  3.166713872990831E-005
                   246  0.000000000000000E+000
 Sym= __2_A__
 Ene=  0.000000000000000E+000
 Spin= Alpha
 Occup=    2.00000000000000     
                     1  1.564447118778822E-005
                     2  2.822316113200782E-004
                     3 -3.565986896731772E-003
                     4 -9.748588695503847E-005
                     5 -1.474174109869516E-003
                     6  9.769462826411950E-004
                     7 -3.874032231215896E-003
                     8  0.000000000000000E+000
                     9 -9.141479194142685E-006
                    10  8.645801221128377E-005
                    11  0.000000000000000E+000
                    12 -3.417719017926679E-005
                    13  2.323192085138667E-004
                    14  0.000000000000000E+000
                    15 -1.831441145594031E-005
                    16  0.000000000000000E+000
                    17  0.000000000000000E+000
                    18  8.006559731307093E-005
                    19 -3.337137676293498E-005
                    20  1.472107553033210E-004
                    21  0.000000000000000E+000
                    22  0.000000000000000E+000
                    23 -2.909897522929680E-005
                    24  1.555132167697875E-004
                    25  0.000000000000000E+000
                    26  1.256878414153506E-005
                    27 -8.162682653693564E-005
                    28  0.000000000000000E+000
                    29  0.000000000000000E+000
                    30  7.355604951222678E-005
                    31 -1.347471465405690E-004
                    32  -1.00074987087120     
                    33 -9.316050867263779E-003
                    34 -2.841215357646207E-003
                    35  8.126689552452812E-003
                    36  3.947210651811963E-004
                    37  4.432705669545206E-003
                    38  0.000000000000000E+000
                    39  2.205764820407059E-004
                    40 -3.710575099850534E-004
                    41  0.000000000000000E+000
                    42 -4.163042902585260E-005
                    43 -4.452823973888081E-003
                    44  0.000000000000000E+000
                    45  5.178566950918167E-004
                    46  0.000000000000000E+000
                    47  0.000000000000000E+000
                    48  2.104952405682412E-004
                    49 -5.037048695743904E-005
                    50 -5.620721253573113E-004
                    51  0.000000000000000E+000
                    52  0.000000000000000E+000
                    53  6.906510558685118E-004
                    54  4.867876957802475E-004
                    55  0.000000000000000E+000
                    56 -2.205960499291692E-005
                    57 -9.934341894207823E-005
                    58  0.000000000000000E+000
                    59  0.000000000000000E+000
                    60  4.320732275709418E-005
                    61 -3.762756698440174E-004
                    62 -1.431056611332485E-002
                    63  2.274347449682171E-003
                    64  2.073458360134406E-004
                    65 -2.657168236329446E-003
                    66  1.227830237718384E-004
                    67 -3.483869935996038E-004
                    68  0.000000000000000E+000
                    69 -4.461143837077632E-004
                    70 -1.424249711648331E-004
                    71  0.000000000000000E+000
                    72  2.044385035775070E-003
                    73 -2.534294062673280E-004
                    74  0.000000000000000E+000
                    75 -3.869453116222623E-005
                    76  0.000000000000000E+000
                    77  0.000000000000000E+000
                    78  2.877737195188498E-005
                    79 -5.793625361519001E-006
                    80  4.182807394004248E-004
                    81  0.000000000000000E+000
                    82  0.000000000000000E+000
                    83  7.146569023943231E-004
                    84  2.375949954228984E-004
                    85  0.000000000000000E+000
                    86 -3.124383690183144E-005
                    87  5.660795787500808E-005
                    88  0.000000000000000E+000
                    89  0.000000000000000E+000
                    90 -5.369968875173247E-005
                    91 -1.535610762763858E-004
                    92 -1.849752814503955E-002
                    93  2.363358646400725E-003
                    94  3.000086981480054E-004
                    95 -3.297625685354526E-003
                    96 -5.618360225301206E-004
                    97 -5.413391225608735E-004
                    98  0.000000000000000E+000
                    99  9.968650310890166E-004
                   100  4.400864615822389E-006
                   101  0.000000000000000E+000
                   102 -1.803567853503166E-003
                   103  5.122341769429911E-005
                   104  0.000000000000000E+000
                   105 -2.279233700302179E-005
                   106  0.000000000000000E+000
                   107  0.000000000000000E+000
                   108  2.630626982305810E-005
                   109  2.779840121174775E-006
                   110  4.163453563235543E-004
                   111  0.000000000000000E+000
                   112  0.000000000000000E+000
                   113  4.000944046577188E-004
                   114 -2.430047097054184E-004
                   115  0.000000000000000E+000
                   116  3.689862130242207E-005
                   117  7.588461751511820E-005
                   118  0.000000000000000E+000
                   119  0.000000000000000E+000
                   120  1.064192817994471E-005
                   121 -1.346818982389204E-004
                   122 -1.658775447382323E-004
                   123  5.740897435405196E-004
                   124 -2.222913750176241E-004
                   125  1.012318809841593E-004
                   126  1.187993662286157E-005
                   127  5.667103960038065E-004
                   128  0.000000000000000E+000
                   129  6.271757049346040E-005
                   130 -6.249943907839935E-004
                   131  0.000000000000000E+000
                   132 -3.115421737360114E-004
                   133 -9.489148729667179E-004
                   134  0.000000000000000E+000
                   135 -1.706639989227425E-005
                   136  0.000000000000000E+000
                   137  0.000000000000000E+000
                   138  8.217348311801138E-007
                   139 -4.867463203322690E-005
                   140 -1.211424096171462E-004
                   141  0.000000000000000E+000
                   142  0.000000000000000E+000
                   143 -2.558278019563762E-004
                   144  9.721268615746706E-005
                   145  0.000000000000000E+000
                   146 -8.808791458486279E-006
                   147  3.422642313768905E-005
                   148  0.000000000000000E+000
                   149  0.000000000000000E+000
                   150  4.617374481189118E-005
                   151 -3.986372030474758E-005
                   152 -5.785422210648058E-004
                   153  5.098830083036577E-004
                   154 -2.296260897642410E-004
                   155  3.685343891470141E-005
                   156  7.321348547239491E-005
                   157  6.635159558099182E-004
                   158  0.000000000000000E+000
                   159 -1.422908108902889E-004
                   160 -5.737423328442592E-004