[Molden Format]
[Atoms] AU
  N     1    7    -0.1122210500   -4.3599459700    0.0000000000        
  C     2    6     0.0335913200   -1.8109490900    0.0000000000        
  C     3    6    -2.2887225800   -0.4296606100    0.0000000000        
  C     4    6     2.3335870100   -0.3906131500    0.0000000000        
  C     5    6    -2.2786527300    2.1540276000    0.0000000000        
  C     6    6     2.3003188500    2.1863690200    0.0000000000        
  C     7    6     0.0032261900    3.4879101500    0.0000000000        
  H     8    1    -7.9643882600   -9.6154280300    0.0000000000        
  H     9    1     1.6906756500   -5.1120232200    0.0000000000        
  H    10    1    -4.0236500100   -1.4744530400    0.0000000000        
  H    11    1     4.0964291800   -1.3976801700    0.0000000000        
  H    12    1    -4.0313054100    3.1764614600    0.0000000000        
  H    13    1     4.0386937700    3.2333879300    0.0000000000        
  H    14    1    -0.0101142100    5.5162228000    0.0000000000        
[5D]
[7F]
[GTO]
  1  0
   s    12 1.00
  0.114200D+05  0.172695D-04
  0.171200D+04  0.134411D-03
  0.389300D+03  0.694561D-03
  0.110000D+03  0.278531D-02
  0.355700D+02  0.863457D-02
  0.125400D+02  0.199805D-01
  0.464400D+01  0.262908D-01
  0.129300D+01 -0.243845D-01
  0.511800D+00 -0.924934D-01
  0.178700D+00 -0.339683D+00
  0.246240D-01  0.345111D+00
  0.112530D-01  0.752750D+00
   s    10 1.00
  0.114200D+05  0.523000D-03
  0.171200D+04  0.404500D-02
  0.389300D+03  0.207750D-01
  0.110000D+03  0.807269D-01
  0.355700D+02  0.233074D+00
  0.125400D+02  0.433501D+00
  0.464400D+01  0.347472D+00
  0.129300D+01  0.412620D-01
  0.511800D+00 -0.850799D-02
  0.178700D+00  0.238400D-02
   s    10 1.00
  0.114200D+05 -0.115000D-03
  0.171200D+04 -0.895000D-03
  0.389300D+03 -0.462400D-02
  0.110000D+03 -0.185280D-01
  0.355700D+02 -0.573390D-01
  0.125400D+02 -0.132076D+00
  0.464400D+01 -0.172510D+00
  0.129300D+01  0.151814D+00
  0.511800D+00  0.599944D+00
  0.178700D+00  0.387462D+00
   s     1 1.00
  0.129300D+01  0.100000D+01
   s     1 1.00
  0.178700D+00  0.100000D+01
   p     5 1.00
  0.266300D+02  0.146700D-01
  0.594800D+01  0.917640D-01
  0.174200D+01  0.298683D+00
  0.555000D+00  0.498487D+00
  0.172500D+00  0.337023D+00
   p     1 1.00
  0.174200D+01  0.100000D+01
   p     1 1.00
  0.555000D+00  0.100000D+01
   d     1 1.00
  0.165400D+01  0.100000D+01
   d     1 1.00
  0.469000D+00  0.100000D+01
   f     1 1.00
  0.109300D+01  0.100000D+01
  
  2  0
   s    10 1.00
  0.823600D+04  0.531000D-03
  0.123500D+04  0.410800D-02
  0.280800D+03  0.210870D-01
  0.792700D+02  0.818530D-01
  0.255900D+02  0.234817D+00
  0.899700D+01  0.434401D+00
  0.331900D+01  0.346129D+00
  0.905900D+00  0.393780D-01
  0.364300D+00 -0.898300D-02
  0.128500D+00  0.238500D-02
   s    10 1.00
  0.823600D+04 -0.113000D-03
  0.123500D+04 -0.878000D-03
  0.280800D+03 -0.454000D-02
  0.792700D+02 -0.181330D-01
  0.255900D+02 -0.557600D-01
  0.899700D+01 -0.126895D+00
  0.331900D+01 -0.170352D+00
  0.905900D+00  0.140382D+00
  0.364300D+00  0.598684D+00
  0.128500D+00  0.395389D+00
   s     1 1.00
  0.905900D+00  0.100000D+01
   s     1 1.00
  0.364300D+00  0.100000D+01
   p     5 1.00
  0.187100D+02  0.140310D-01
  0.413300D+01  0.868660D-01
  0.120000D+01  0.290216D+00
  0.382700D+00  0.501008D+00
  0.120900D+00  0.343406D+00
   p     1 1.00
  0.382700D+00  0.100000D+01
   p     1 1.00
  0.120900D+00  0.100000D+01
   d     1 1.00
  0.109700D+01  0.100000D+01
   d     1 1.00
  0.318000D+00  0.100000D+01
   f     1 1.00
  0.761000D+00  0.100000D+01
  
  3  0
   s    10 1.00
  0.823600D+04  0.531000D-03
  0.123500D+04  0.410800D-02
  0.280800D+03  0.210870D-01
  0.792700D+02  0.818530D-01
  0.255900D+02  0.234817D+00
  0.899700D+01  0.434401D+00
  0.331900D+01  0.346129D+00
  0.905900D+00  0.393780D-01
  0.364300D+00 -0.898300D-02
  0.128500D+00  0.238500D-02
   s    10 1.00
  0.823600D+04 -0.113000D-03
  0.123500D+04 -0.878000D-03
  0.280800D+03 -0.454000D-02
  0.792700D+02 -0.181330D-01
  0.255900D+02 -0.557600D-01
  0.899700D+01 -0.126895D+00
  0.331900D+01 -0.170352D+00
  0.905900D+00  0.140382D+00
  0.364300D+00  0.598684D+00
  0.128500D+00  0.395389D+00
   s     1 1.00
  0.905900D+00  0.100000D+01
   s     1 1.00
  0.364300D+00  0.100000D+01
   p     5 1.00
  0.187100D+02  0.140310D-01
  0.413300D+01  0.868660D-01
  0.120000D+01  0.290216D+00
  0.382700D+00  0.501008D+00
  0.120900D+00  0.343406D+00
   p     1 1.00
  0.382700D+00  0.100000D+01
   p     1 1.00
  0.120900D+00  0.100000D+01
   d     1 1.00
  0.109700D+01  0.100000D+01
   d     1 1.00
  0.318000D+00  0.100000D+01
   f     1 1.00
  0.761000D+00  0.100000D+01
  
  4  0
   s    10 1.00
  0.823600D+04  0.531000D-03
  0.123500D+04  0.410800D-02
  0.280800D+03  0.210870D-01
  0.792700D+02  0.818530D-01
  0.255900D+02  0.234817D+00
  0.899700D+01  0.434401D+00
  0.331900D+01  0.346129D+00
  0.905900D+00  0.393780D-01
  0.364300D+00 -0.898300D-02
  0.128500D+00  0.238500D-02
   s    10 1.00
  0.823600D+04 -0.113000D-03
  0.123500D+04 -0.878000D-03
  0.280800D+03 -0.454000D-02
  0.792700D+02 -0.181330D-01
  0.255900D+02 -0.557600D-01
  0.899700D+01 -0.126895D+00
  0.331900D+01 -0.170352D+00
  0.905900D+00  0.140382D+00
  0.364300D+00  0.598684D+00
  0.128500D+00  0.395389D+00
   s     1 1.00
  0.905900D+00  0.100000D+01
   s     1 1.00
  0.364300D+00  0.100000D+01
   p     5 1.00
  0.187100D+02  0.140310D-01
  0.413300D+01  0.868660D-01
  0.120000D+01  0.290216D+00
  0.382700D+00  0.501008D+00
  0.120900D+00  0.343406D+00
   p     1 1.00
  0.382700D+00  0.100000D+01
   p     1 1.00
  0.120900D+00  0.100000D+01
   d     1 1.00
  0.109700D+01  0.100000D+01
   d     1 1.00
  0.318000D+00  0.100000D+01
   f     1 1.00
  0.761000D+00  0.100000D+01
  
  5  0
   s    10 1.00
  0.823600D+04  0.531000D-03
  0.123500D+04  0.410800D-02
  0.280800D+03  0.210870D-01
  0.792700D+02  0.818530D-01
  0.255900D+02  0.234817D+00
  0.899700D+01  0.434401D+00
  0.331900D+01  0.346129D+00
  0.905900D+00  0.393780D-01
  0.364300D+00 -0.898300D-02
  0.128500D+00  0.238500D-02
   s    10 1.00
  0.823600D+04 -0.113000D-03
  0.123500D+04 -0.878000D-03
  0.280800D+03 -0.454000D-02
  0.792700D+02 -0.181330D-01
  0.255900D+02 -0.557600D-01
  0.899700D+01 -0.126895D+00
  0.331900D+01 -0.170352D+00
  0.905900D+00  0.140382D+00
  0.364300D+00  0.598684D+00
  0.128500D+00  0.395389D+00
   s     1 1.00
  0.905900D+00  0.100000D+01
   s     1 1.00
  0.364300D+00  0.100000D+01
   p     5 1.00
  0.187100D+02  0.140310D-01
  0.413300D+01  0.868660D-01
  0.120000D+01  0.290216D+00
  0.382700D+00  0.501008D+00
  0.120900D+00  0.343406D+00
   p     1 1.00
  0.382700D+00  0.100000D+01
   p     1 1.00
  0.120900D+00  0.100000D+01
   d     1 1.00
  0.109700D+01  0.100000D+01
   d     1 1.00
  0.318000D+00  0.100000D+01
   f     1 1.00
  0.761000D+00  0.100000D+01
  
  6  0
   s    10 1.00
  0.823600D+04  0.531000D-03
  0.123500D+04  0.410800D-02
  0.280800D+03  0.210870D-01
  0.792700D+02  0.818530D-01
  0.255900D+02  0.234817D+00
  0.899700D+01  0.434401D+00
  0.331900D+01  0.346129D+00
  0.905900D+00  0.393780D-01
  0.364300D+00 -0.898300D-02
  0.128500D+00  0.238500D-02
   s    10 1.00
  0.823600D+04 -0.113000D-03
  0.123500D+04 -0.878000D-03
  0.280800D+03 -0.454000D-02
  0.792700D+02 -0.181330D-01
  0.255900D+02 -0.557600D-01
  0.899700D+01 -0.126895D+00
  0.331900D+01 -0.170352D+00
  0.905900D+00  0.140382D+00
  0.364300D+00  0.598684D+00
  0.128500D+00  0.395389D+00
   s     1 1.00
  0.905900D+00  0.100000D+01
   s     1 1.00
  0.364300D+00  0.100000D+01
   p     5 1.00
  0.187100D+02  0.140310D-01
  0.413300D+01  0.868660D-01
  0.120000D+01  0.290216D+00
  0.382700D+00  0.501008D+00
  0.120900D+00  0.343406D+00
   p     1 1.00
  0.382700D+00  0.100000D+01
   p     1 1.00
  0.120900D+00  0.100000D+01
   d     1 1.00
  0.109700D+01  0.100000D+01
   d     1 1.00
  0.318000D+00  0.100000D+01
   f     1 1.00
  0.761000D+00  0.100000D+01
  
  7  0
   s    10 1.00
  0.823600D+04  0.531000D-03
  0.123500D+04  0.410800D-02
  0.280800D+03  0.210870D-01
  0.792700D+02  0.818530D-01
  0.255900D+02  0.234817D+00
  0.899700D+01  0.434401D+00
  0.331900D+01  0.346129D+00
  0.905900D+00  0.393780D-01
  0.364300D+00 -0.898300D-02
  0.128500D+00  0.238500D-02
   s    10 1.00
  0.823600D+04 -0.113000D-03
  0.123500D+04 -0.878000D-03
  0.280800D+03 -0.454000D-02
  0.792700D+02 -0.181330D-01
  0.255900D+02 -0.557600D-01
  0.899700D+01 -0.126895D+00
  0.331900D+01 -0.170352D+00
  0.905900D+00  0.140382D+00
  0.364300D+00  0.598684D+00
  0.128500D+00  0.395389D+00
   s     1 1.00
  0.905900D+00  0.100000D+01
   s     1 1.00
  0.364300D+00  0.100000D+01
   p     5 1.00
  0.187100D+02  0.140310D-01
  0.413300D+01  0.868660D-01
  0.120000D+01  0.290216D+00
  0.382700D+00  0.501008D+00
  0.120900D+00  0.343406D+00
   p     1 1.00
  0.382700D+00  0.100000D+01
   p     1 1.00
  0.120900D+00  0.100000D+01
   d     1 1.00
  0.109700D+01  0.100000D+01
   d     1 1.00
  0.318000D+00  0.100000D+01
   f     1 1.00
  0.761000D+00  0.100000D+01
  
  8  0
   s     4 1.00
  0.130100D+02  0.196850D-01
  0.196200D+01  0.137977D+00
  0.444600D+00  0.478148D+00
  0.122000D+00  0.501240D+00
   s     1 1.00
  0.122000D+00  0.100000D+01
   p     1 1.00
  0.727000D+00  0.100000D+01
  
  9  0
   s     4 1.00
  0.130100D+02  0.196850D-01
  0.196200D+01  0.137977D+00
  0.444600D+00  0.478148D+00
  0.122000D+00  0.501240D+00
   s     1 1.00
  0.122000D+00  0.100000D+01
   p     1 1.00
  0.727000D+00  0.100000D+01
  
 10  0
   s     4 1.00
  0.130100D+02  0.196850D-01
  0.196200D+01  0.137977D+00
  0.444600D+00  0.478148D+00
  0.122000D+00  0.501240D+00
   s     1 1.00
  0.122000D+00  0.100000D+01
   p     1 1.00
  0.727000D+00  0.100000D+01
  
 11  0
   s     4 1.00
  0.130100D+02  0.196850D-01
  0.196200D+01  0.137977D+00
  0.444600D+00  0.478148D+00
  0.122000D+00  0.501240D+00
   s     1 1.00
  0.122000D+00  0.100000D+01
   p     1 1.00
  0.727000D+00  0.100000D+01
  
 12  0
   s     4 1.00
  0.130100D+02  0.196850D-01
  0.196200D+01  0.137977D+00
  0.444600D+00  0.478148D+00
  0.122000D+00  0.501240D+00
   s     1 1.00
  0.122000D+00  0.100000D+01
   p     1 1.00
  0.727000D+00  0.100000D+01
  
 13  0
   s     4 1.00
  0.130100D+02  0.196850D-01
  0.196200D+01  0.137977D+00
  0.444600D+00  0.478148D+00
  0.122000D+00  0.501240D+00
   s     1 1.00
  0.122000D+00  0.100000D+01
   p     1 1.00
  0.727000D+00  0.100000D+01
  
 14  0
   s     4 1.00
  0.130100D+02  0.196850D-01
  0.196200D+01  0.137977D+00
  0.444600D+00  0.478148D+00
  0.122000D+00  0.501240D+00
   s     1 1.00
  0.122000D+00  0.100000D+01
   p     1 1.00
  0.727000D+00  0.100000D+01
  
[MO]
 Sym= __1_a__
 Ene=  0.000000000000000E+000
 Spin= Alpha
 Occup=    2.00000000000000     
                     1  1.445679134412580E-004
                     2  0.998338686820534     
                     3 -2.629725875584580E-003
                     4  1.838804541605630E-003
                     5  6.605702942022600E-003
                     6  2.831216715161800E-003
                     7  5.959611670587890E-003
                     8  0.000000000000000E+000
                     9 -6.941858027629410E-004
                    10 -7.267837779882940E-004
                    11  0.000000000000000E+000
                    12 -2.484366120423210E-003
                    13 -1.910909733660790E-003
                    14  0.000000000000000E+000
                    15 -2.683085284660514E-005
                    16  0.000000000000000E+000
                    17  0.000000000000000E+000
                    18 -1.533118498022528E-004
                    19 -5.780898145157360E-005
                    20  8.905476246609858E-005
                    21  0.000000000000000E+000
                    22  0.000000000000000E+000
                    23 -2.059004592968040E-004
                    24  5.024901255310680E-004
                    25  0.000000000000000E+000
                    26 -5.710134886195607E-006
                    27 -4.864476899804630E-005
                    28  0.000000000000000E+000
                    29  0.000000000000000E+000
                    30  3.802606350063597E-005
                    31 -1.077446151746342E-004
                    32 -4.015539470633000E-004
                    33  1.368741547155960E-004
                    34  3.148604937317820E-004
                    35 -5.064843793825890E-005
                    36 -4.951847619786900E-005
                    37 -2.733064709518870E-003
                    38  0.000000000000000E+000
                    39  3.752213884196830E-004
                    40  2.006511552548980E-004
                    41  0.000000000000000E+000
                    42 -2.060845926542060E-003
                    43  5.142232550100720E-003
                    44  0.000000000000000E+000
                    45  1.502569088628591E-006
                    46  0.000000000000000E+000
                    47  0.000000000000000E+000
                    48 -1.375305172089508E-004
                    49  2.041520478765940E-005
                    50 -2.009514158399760E-004
                    51  0.000000000000000E+000
                    52  0.000000000000000E+000
                    53  4.842351669148120E-005
                    54  7.753566158152450E-004
                    55  0.000000000000000E+000
                    56 -3.048887221874625E-006
                    57 -7.048577515060699E-005
                    58  0.000000000000000E+000
                    59  0.000000000000000E+000
                    60  2.476778840689181E-005
                    61 -1.224477506502521E-004
                    62 -5.640343863701380E-004
                    63 -2.260659787739560E-003
                    64 -8.556544148993579E-005
                    65  2.271237582197010E-003
                    66 -5.261967439115050E-004
                    67  1.625926607031420E-004
                    68  0.000000000000000E+000
                    69  3.887420983506200E-004
                    70  8.926063007211900E-004
                    71  0.000000000000000E+000
                    72 -1.693059999264040E-003
                    73  6.831687703039450E-004
                    74  0.000000000000000E+000
                    75 -4.299768196597398E-005
                    76  0.000000000000000E+000
                    77  0.000000000000000E+000
                    78 -6.496418962547280E-005
                    79 -2.011701089441760E-005
                    80 -1.326564851082889E-004
                    81  0.000000000000000E+000
                    82  0.000000000000000E+000
                    83  4.174786696309220E-005
                    84  1.732203720487060E-005
                    85  0.000000000000000E+000
                    86  8.195769170451464E-006
                    87 -4.619315799081154E-005
                    88  0.000000000000000E+000
                    89  0.000000000000000E+000
                    90 -2.475166626562106E-005
                    91 -1.538190063002176E-004
                    92 -1.838141833586300E-004
                    93 -6.718032711634600E-004
                    94  1.555494827220410E-004
                    95 -4.476811112431610E-005
                    96  2.256519899760000E-004
                    97  9.060120589964480E-006
                    98  0.000000000000000E+000
                    99  3.377750945040050E-004
                   100  3.991345555140210E-004
                   101  0.000000000000000E+000
                   102  6.620720685501401E-004
                   103 -1.784938946247240E-003
                   104  0.000000000000000E+000
                   105 -1.199564693732503E-005
                   106  0.000000000000000E+000
                   107  0.000000000000000E+000
                   108 -4.675700686845420E-005
                   109 -1.331989171808240E-005
                   110  8.421317364758966E-005
                   111  0.000000000000000E+000
                   112  0.000000000000000E+000
                   113 -1.677920393395282E-004
                   114  8.497779377090580E-005
                   115  0.000000000000000E+000
                   116 -1.991164498586291E-005
                   117 -2.264303926256336E-005
                   118  0.000000000000000E+000
                   119  0.000000000000000E+000
                   120 -1.218855358599295E-005
                   121 -3.731620826353332E-005
                   122 -2.429043640870650E-004
                   123 -5.865990235369140E-004
                   124  1.647373279294060E-004
                   125  3.312362993249700E-004
                   126 -3.312952208666020E-005
                   127 -3.434180147867310E-004
                   128  0.000000000000000E+000
                   129  2.463847297409600E-004
                   130  6.536755316875530E-004
                   131  0.000000000000000E+000
                   132  3.808244524986890E-004
                   133  2.029871018949210E-003
                   134  0.000000000000000E+000
                   135  1.320900419900449E-005
                   136  0.000000000000000E+000
                   137  0.000000000000000E+000
                   138  4.564267705597340E-005
                   139 -1.699669849172110E-006
                   140  2.049011303055737E-004
                   141  0.000000000000000E+000
                   142  0.000000000000000E+000
                   143  4.049957228831440E-004
                   144  2.403498970472010E-004
                   145  0.000000000000000E+000
                   146 -1.256408108122209E-005
                   147 -6.525170358907729E-005
                   148  0.000000000000000E+000
                   149  0.000000000000000E+000
                   150 -1.352848316086614E-005
                   151 -5.323202755197194E-005
                   152 -1.299223681753390E-004
                   153 -3.523632500750500E-004
                   154  5.521332231125230E-005
                   155  1.878301091015690E-004
                   156  1.037870743961600E-005
                   157 -9.001852006217630E-005
                   158  0.000000000000000E+000
                   159  1.165573546470240E-005
                   160  6.448486909939969E-005
                   161  0.000000000000000E+000
                   162  7.288442628022230E-004
                   163 -3.598604849865620E-004
                   164  0.000000000000000E+000
                   165  1.937538241582703E-006
                   166  0.000000000000000E+000
                   167  0.000000000000000E+000
                   168  3.168496664072780E-006
                   169  9.641842508563430E-006
                   170  1.082634891771529E-004
                   171  0.000000000000000E+000
                   172  0.000000000000000E+000
                   173  5.723229066307600E-005
                   174  2.644675131403470E-005
                   175  0.000000000000000E+000
                   176  3.024933047521325E-006
                   177 -1.514850265797485E-005
                   178  0.000000000000000E+000
                   179  0.000000000000000E+000
                   180 -2.072762319624321E-005
                   181 -3.056045345886861E-005
                   182 -1.339945081150390E-004
                   183 -3.898647534772990E-004
                   184  3.315676409304150E-005
                   185  1.842229456598980E-004
                   186 -5.059019968957280E-005
                   187 -6.477882100871361E-005
                   188  0.000000000000000E+000
                   189  2.741574796494870E-004
                   190  1.263036406295930E-004
                   191  0.000000000000000E+000
                   192  1.345453940313620E-003
                   193 -3.510468595659100E-004
                   194  0.000000000000000E+000
                   195  1.808907355545481E-006
                   196  0.000000000000000E+000
                   197  0.000000000000000E+000
                   198 -3.769169341857860E-006
                   199  4.068064648482070E-006
                   200 -7.211515539790438E-006
                   201  0.000000000000000E+000
                   202  0.000000000000000E+000
                   203 -8.345808870579699E-005
                   204 -2.035862512875140E-004
                   205  0.000000000000000E+000
                   206 -1.057602075702784E-005
                   207 -4.589745036272280E-006
                   208  0.000000000000000E+000
                   209  0.000000000000000E+000
                   210  7.443161263650641E-006
                   211 -2.856281681570968E-006
                   212  1.062455240337040E-005
                   213 -2.667723908539880E-005
                   214 -1.247868058334260E-006
                   215 -7.812131406635710E-007
                   216  0.000000000000000E+000
                   217 -8.609166761157010E-004
                   218 -6.647885878647640E-004
                   219 -2.392997240182490E-004
                   220  6.461059533802791E-005
                   221  0.000000000000000E+000
                   222 -2.111790385624500E-004
                   223 -5.552860738959620E-004
                   224  2.469208351090280E-005
                   225 -5.824721232306590E-005
                   226  0.000000000000000E+000
                   227  6.804960360607600E-005
                   228 -7.138701796499410E-004
                   229 -4.584401334206110E-005
                   230 -1.343204711643470E-005
                   231  0.000000000000000E+000
                   232  4.281692198891540E-006
                   233 -5.385748446128520E-004
                   234  1.250137577734140E-005
                   235 -3.572645407038510E-006
                   236  0.000000000000000E+000
                   237  7.565657020586010E-006
                   238 -3.727844120706170E-004
                   239 -6.016415380188610E-006
                   240 -1.504011118638170E-006
                   241  0.000000000000000E+000
                   242 -6.451011512082770E-005
                   243  9.932601577881751E-005
                   244  1.982070580940470E-007
                   245  3.166713860168410E-005
                   246  0.000000000000000E+000
 Sym= __2_a__
 Ene=  0.000000000000000E+000
 Spin= Alpha
 Occup=    2.00000000000000     
                     1  1.564447102041030E-005
                     2  2.822315907587320E-004
                     3 -3.565986937960370E-003
                     4 -9.748588625969839E-005
                     5 -1.474174102929010E-003
                     6  9.769462574807271E-004
                     7 -3.874032237825000E-003
                     8  0.000000000000000E+000
                     9 -9.141481599501350E-006
                    10  8.645801202198020E-005
                    11  0.000000000000000E+000
                    12 -3.417718880361640E-005
                    13  2.323192041490110E-004
                    14  0.000000000000000E+000
                    15 -1.831441075131221E-005
                    16  0.000000000000000E+000
                    17  0.000000000000000E+000
                    18  8.006559724764320E-005
                    19 -3.337137739758290E-005
                    20  1.472107549783163E-004
                    21  0.000000000000000E+000
                    22  0.000000000000000E+000
                    23 -2.909897227715420E-005
                    24  1.555132136113220E-004
                    25  0.000000000000000E+000
                    26  1.256878434836107E-005
                    27 -8.162682668370422E-005
                    28  0.000000000000000E+000
                    29  0.000000000000000E+000
                    30  7.355604910604135E-005
                    31 -1.347471457827426E-004
                    32  -1.00074987062294     
                    33 -9.316050916262230E-003
                    34 -2.841215350355820E-003
                    35  8.126689513937090E-003
                    36  3.947209511640890E-004
                    37  4.432705666058880E-003
                    38  0.000000000000000E+000
                    39  2.205764747004470E-004
                    40 -3.710575225767030E-004
                    41  0.000000000000000E+000
                    42 -4.163039392165200E-005
                    43 -4.452823971935770E-003
                    44  0.000000000000000E+000
                    45  5.178566956507488E-004
                    46  0.000000000000000E+000
                    47  0.000000000000000E+000
                    48  2.104952407613820E-004
                    49 -5.037049026932220E-005
                    50 -5.620721167346517E-004
                    51  0.000000000000000E+000
                    52  0.000000000000000E+000
                    53  6.906510378484180E-004
                    54  4.867876914604510E-004
                    55  0.000000000000000E+000
                    56 -2.205960454641286E-005
                    57 -9.934341891123331E-005
                    58  0.000000000000000E+000
                    59  0.000000000000000E+000
                    60  4.320732281811213E-005
                    61 -3.762756693482038E-004
                    62 -1.431056744809470E-002
                    63  2.274347472875570E-003
                    64  2.073458285304080E-004
                    65 -2.657168223121180E-003
                    66  1.227830616530640E-004
                    67 -3.483870200973500E-004
                    68  0.000000000000000E+000
                    69 -4.461143815644180E-004
                    70 -1.424249770267520E-004
                    71  0.000000000000000E+000
                    72  2.044385039114500E-003
                    73 -2.534294092052710E-004
                    74  0.000000000000000E+000
                    75 -3.869453124310663E-005
                    76  0.000000000000000E+000
                    77  0.000000000000000E+000
                    78  2.877737285380200E-005
                    79 -5.793626960075470E-006
                    80  4.182807369118575E-004
                    81  0.000000000000000E+000
                    82  0.000000000000000E+000
                    83  7.146568979547220E-004
                    84  2.375949875816870E-004
                    85  0.000000000000000E+000
                    86 -3.124383749481650E-005
                    87  5.660795831221310E-005
                    88  0.000000000000000E+000
                    89  0.000000000000000E+000
                    90 -5.369968857081925E-005
                    91 -1.535610759886575E-004
                    92 -1.849753960264800E-002
                    93  2.363358563934190E-003
                    94  3.000086617204780E-004
                    95 -3.297625582981790E-003
                    96 -5.618359220824160E-004
                    97 -5.413390367615880E-004
                    98  0.000000000000000E+000
                    99  9.968650102112680E-004
                   100  4.400851260705480E-006
                   101  0.000000000000000E+000
                   102 -1.803567858564170E-003
                   103  5.122339251968280E-005
                   104  0.000000000000000E+000
                   105 -2.279233249854210E-005
                   106  0.000000000000000E+000
                   107  0.000000000000000E+000
                   108  2.630626969212940E-005
                   109  2.779835597159900E-006
                   110  4.163453504523961E-004
                   111  0.000000000000000E+000
                   112  0.000000000000000E+000
                   113  4.000943957819840E-004
                   114 -2.430046942228150E-004
                   115  0.000000000000000E+000
                   116  3.689862188268092E-005
                   117  7.588461664018795E-005
                   118  0.000000000000000E+000
                   119  0.000000000000000E+000
                   120  1.064192833207689E-005
                   121 -1.346818954675539E-004
                   122 -1.658777819493680E-004
                   123  5.740897422499590E-004
                   124 -2.222913749879020E-004
                   125  1.012318681876410E-004
                   126  1.187991932683440E-005
                   127  5.667104029505420E-004
                   128  0.000000000000000E+000
                   129  6.271757331483190E-005
                   130 -6.249943919698260E-004
                   131  0.000000000000000E+000
                   132 -3.115421715069200E-004
                   133 -9.489148864992450E-004
                   134  0.000000000000000E+000
                   135 -1.706639973050216E-005
                   136  0.000000000000000E+000
                   137  0.000000000000000E+000
                   138  8.217351710538520E-007
                   139 -4.867463305812930E-005
                   140 -1.211424087199365E-004
                   141  0.000000000000000E+000
                   142  0.000000000000000E+000
                   143 -2.558278021055740E-004
                   144  9.721268226795991E-005
                   145  0.000000000000000E+000
                   146 -8.808791517928309E-006
                   147  3.422642345231132E-005
                   148  0.000000000000000E+000
                   149  0.000000000000000E+000
                   150  4.617374494483372E-005
                   151 -3.986372067430634E-005
                   152 -5.785429762924760E-004
                   153  5.098830462355890E-004
                   154 -2.296260880695030E-004
                   155  3.685340494951740E-005
                   156  7.321345265039420E-005
                   157  6.635158927690010E-004
                   158  0.000000000000000E+000
                   159 -1.422908068471630E-004
                   160 -5.737423216767541E-004