[Molden Format]
[Atoms] AU
  N     1    7    -4.4968227800    0.0526346600   -0.3399806000        
  C     2    6    -1.7532584600   -0.0225502900   -0.1518422600        
  C     3    6    -0.3585711200    0.2168009200   -2.3652955800        
  C     4    6    -0.4736913500   -0.2222408000    2.1412395800        
  C     5    6     2.2563169300    0.2180163600   -2.2883157600        
  C     6    6     2.1404538900   -0.1852948100    2.2088397700        
  C     7    6     3.5119637200    0.0270436800   -0.0050766000        
  H     8    1    -5.1210146200   -1.8063175300   -0.1742715200        
  H     9    1    -5.1065159200    0.8164224600    1.3352441100        
  H    10    1    -1.3387577100    0.4163981300   -4.1260540100        
  H    11    1    -1.5257627400   -0.4217043400    3.8641532300        
  H    12    1     3.3126795400    0.3966767000   -4.0109410300        
  H    13    1     3.1026001100   -0.3371836700    3.9890613500        
  H    14    1     5.5400366400    0.0461426100    0.0494371800        
[5D]
[7F]
[GTO]
  1  0
   s    12 1.00
  0.114200D+05  0.172695D-04
  0.171200D+04  0.134411D-03
  0.389300D+03  0.694561D-03
  0.110000D+03  0.278531D-02
  0.355700D+02  0.863457D-02
  0.125400D+02  0.199805D-01
  0.464400D+01  0.262908D-01
  0.129300D+01 -0.243845D-01
  0.511800D+00 -0.924934D-01
  0.178700D+00 -0.339683D+00
  0.246240D-01  0.345111D+00
  0.112530D-01  0.752750D+00
   s    10 1.00
  0.114200D+05  0.523000D-03
  0.171200D+04  0.404500D-02
  0.389300D+03  0.207750D-01
  0.110000D+03  0.807269D-01
  0.355700D+02  0.233074D+00
  0.125400D+02  0.433501D+00
  0.464400D+01  0.347472D+00
  0.129300D+01  0.412620D-01
  0.511800D+00 -0.850799D-02
  0.178700D+00  0.238400D-02
   s    10 1.00
  0.114200D+05 -0.115000D-03
  0.171200D+04 -0.895000D-03
  0.389300D+03 -0.462400D-02
  0.110000D+03 -0.185280D-01
  0.355700D+02 -0.573390D-01
  0.125400D+02 -0.132076D+00
  0.464400D+01 -0.172510D+00
  0.129300D+01  0.151814D+00
  0.511800D+00  0.599944D+00
  0.178700D+00  0.387462D+00
   s     1 1.00
  0.129300D+01  0.100000D+01
   s     1 1.00
  0.178700D+00  0.100000D+01
   p     5 1.00
  0.266300D+02  0.146700D-01
  0.594800D+01  0.917640D-01
  0.174200D+01  0.298683D+00
  0.555000D+00  0.498487D+00
  0.172500D+00  0.337023D+00
   p     1 1.00
  0.174200D+01  0.100000D+01
   p     1 1.00
  0.555000D+00  0.100000D+01
   d     1 1.00
  0.165400D+01  0.100000D+01
   d     1 1.00
  0.469000D+00  0.100000D+01
   f     1 1.00
  0.109300D+01  0.100000D+01
  
  2  0
   s    10 1.00
  0.823600D+04  0.531000D-03
  0.123500D+04  0.410800D-02
  0.280800D+03  0.210870D-01
  0.792700D+02  0.818530D-01
  0.255900D+02  0.234817D+00
  0.899700D+01  0.434401D+00
  0.331900D+01  0.346129D+00
  0.905900D+00  0.393780D-01
  0.364300D+00 -0.898300D-02
  0.128500D+00  0.238500D-02
   s    10 1.00
  0.823600D+04 -0.113000D-03
  0.123500D+04 -0.878000D-03
  0.280800D+03 -0.454000D-02
  0.792700D+02 -0.181330D-01
  0.255900D+02 -0.557600D-01
  0.899700D+01 -0.126895D+00
  0.331900D+01 -0.170352D+00
  0.905900D+00  0.140382D+00
  0.364300D+00  0.598684D+00
  0.128500D+00  0.395389D+00
   s     1 1.00
  0.905900D+00  0.100000D+01
   s     1 1.00
  0.364300D+00  0.100000D+01
   p     5 1.00
  0.187100D+02  0.140310D-01
  0.413300D+01  0.868660D-01
  0.120000D+01  0.290216D+00
  0.382700D+00  0.501008D+00
  0.120900D+00  0.343406D+00
   p     1 1.00
  0.382700D+00  0.100000D+01
   p     1 1.00
  0.120900D+00  0.100000D+01
   d     1 1.00
  0.109700D+01  0.100000D+01
   d     1 1.00
  0.318000D+00  0.100000D+01
   f     1 1.00
  0.761000D+00  0.100000D+01
  
  3  0
   s    10 1.00
  0.823600D+04  0.531000D-03
  0.123500D+04  0.410800D-02
  0.280800D+03  0.210870D-01
  0.792700D+02  0.818530D-01
  0.255900D+02  0.234817D+00
  0.899700D+01  0.434401D+00
  0.331900D+01  0.346129D+00
  0.905900D+00  0.393780D-01
  0.364300D+00 -0.898300D-02
  0.128500D+00  0.238500D-02
   s    10 1.00
  0.823600D+04 -0.113000D-03
  0.123500D+04 -0.878000D-03
  0.280800D+03 -0.454000D-02
  0.792700D+02 -0.181330D-01
  0.255900D+02 -0.557600D-01
  0.899700D+01 -0.126895D+00
  0.331900D+01 -0.170352D+00
  0.905900D+00  0.140382D+00
  0.364300D+00  0.598684D+00
  0.128500D+00  0.395389D+00
   s     1 1.00
  0.905900D+00  0.100000D+01
   s     1 1.00
  0.364300D+00  0.100000D+01
   p     5 1.00
  0.187100D+02  0.140310D-01
  0.413300D+01  0.868660D-01
  0.120000D+01  0.290216D+00
  0.382700D+00  0.501008D+00
  0.120900D+00  0.343406D+00
   p     1 1.00
  0.382700D+00  0.100000D+01
   p     1 1.00
  0.120900D+00  0.100000D+01
   d     1 1.00
  0.109700D+01  0.100000D+01
   d     1 1.00
  0.318000D+00  0.100000D+01
   f     1 1.00
  0.761000D+00  0.100000D+01
  
  4  0
   s    10 1.00
  0.823600D+04  0.531000D-03
  0.123500D+04  0.410800D-02
  0.280800D+03  0.210870D-01
  0.792700D+02  0.818530D-01
  0.255900D+02  0.234817D+00
  0.899700D+01  0.434401D+00
  0.331900D+01  0.346129D+00
  0.905900D+00  0.393780D-01
  0.364300D+00 -0.898300D-02
  0.128500D+00  0.238500D-02
   s    10 1.00
  0.823600D+04 -0.113000D-03
  0.123500D+04 -0.878000D-03
  0.280800D+03 -0.454000D-02
  0.792700D+02 -0.181330D-01
  0.255900D+02 -0.557600D-01
  0.899700D+01 -0.126895D+00
  0.331900D+01 -0.170352D+00
  0.905900D+00  0.140382D+00
  0.364300D+00  0.598684D+00
  0.128500D+00  0.395389D+00
   s     1 1.00
  0.905900D+00  0.100000D+01
   s     1 1.00
  0.364300D+00  0.100000D+01
   p     5 1.00
  0.187100D+02  0.140310D-01
  0.413300D+01  0.868660D-01
  0.120000D+01  0.290216D+00
  0.382700D+00  0.501008D+00
  0.120900D+00  0.343406D+00
   p     1 1.00
  0.382700D+00  0.100000D+01
   p     1 1.00
  0.120900D+00  0.100000D+01
   d     1 1.00
  0.109700D+01  0.100000D+01
   d     1 1.00
  0.318000D+00  0.100000D+01
   f     1 1.00
  0.761000D+00  0.100000D+01
  
  5  0
   s    10 1.00
  0.823600D+04  0.531000D-03
  0.123500D+04  0.410800D-02
  0.280800D+03  0.210870D-01
  0.792700D+02  0.818530D-01
  0.255900D+02  0.234817D+00
  0.899700D+01  0.434401D+00
  0.331900D+01  0.346129D+00
  0.905900D+00  0.393780D-01
  0.364300D+00 -0.898300D-02
  0.128500D+00  0.238500D-02
   s    10 1.00
  0.823600D+04 -0.113000D-03
  0.123500D+04 -0.878000D-03
  0.280800D+03 -0.454000D-02
  0.792700D+02 -0.181330D-01
  0.255900D+02 -0.557600D-01
  0.899700D+01 -0.126895D+00
  0.331900D+01 -0.170352D+00
  0.905900D+00  0.140382D+00
  0.364300D+00  0.598684D+00
  0.128500D+00  0.395389D+00
   s     1 1.00
  0.905900D+00  0.100000D+01
   s     1 1.00
  0.364300D+00  0.100000D+01
   p     5 1.00
  0.187100D+02  0.140310D-01
  0.413300D+01  0.868660D-01
  0.120000D+01  0.290216D+00
  0.382700D+00  0.501008D+00
  0.120900D+00  0.343406D+00
   p     1 1.00
  0.382700D+00  0.100000D+01
   p     1 1.00
  0.120900D+00  0.100000D+01
   d     1 1.00
  0.109700D+01  0.100000D+01
   d     1 1.00
  0.318000D+00  0.100000D+01
   f     1 1.00
  0.761000D+00  0.100000D+01
  
  6  0
   s    10 1.00
  0.823600D+04  0.531000D-03
  0.123500D+04  0.410800D-02
  0.280800D+03  0.210870D-01
  0.792700D+02  0.818530D-01
  0.255900D+02  0.234817D+00
  0.899700D+01  0.434401D+00
  0.331900D+01  0.346129D+00
  0.905900D+00  0.393780D-01
  0.364300D+00 -0.898300D-02
  0.128500D+00  0.238500D-02
   s    10 1.00
  0.823600D+04 -0.113000D-03
  0.123500D+04 -0.878000D-03
  0.280800D+03 -0.454000D-02
  0.792700D+02 -0.181330D-01
  0.255900D+02 -0.557600D-01
  0.899700D+01 -0.126895D+00
  0.331900D+01 -0.170352D+00
  0.905900D+00  0.140382D+00
  0.364300D+00  0.598684D+00
  0.128500D+00  0.395389D+00
   s     1 1.00
  0.905900D+00  0.100000D+01
   s     1 1.00
  0.364300D+00  0.100000D+01
   p     5 1.00
  0.187100D+02  0.140310D-01
  0.413300D+01  0.868660D-01
  0.120000D+01  0.290216D+00
  0.382700D+00  0.501008D+00
  0.120900D+00  0.343406D+00
   p     1 1.00
  0.382700D+00  0.100000D+01
   p     1 1.00
  0.120900D+00  0.100000D+01
   d     1 1.00
  0.109700D+01  0.100000D+01
   d     1 1.00
  0.318000D+00  0.100000D+01
   f     1 1.00
  0.761000D+00  0.100000D+01
  
  7  0
   s    10 1.00
  0.823600D+04  0.531000D-03
  0.123500D+04  0.410800D-02
  0.280800D+03  0.210870D-01
  0.792700D+02  0.818530D-01
  0.255900D+02  0.234817D+00
  0.899700D+01  0.434401D+00
  0.331900D+01  0.346129D+00
  0.905900D+00  0.393780D-01
  0.364300D+00 -0.898300D-02
  0.128500D+00  0.238500D-02
   s    10 1.00
  0.823600D+04 -0.113000D-03
  0.123500D+04 -0.878000D-03
  0.280800D+03 -0.454000D-02
  0.792700D+02 -0.181330D-01
  0.255900D+02 -0.557600D-01
  0.899700D+01 -0.126895D+00
  0.331900D+01 -0.170352D+00
  0.905900D+00  0.140382D+00
  0.364300D+00  0.598684D+00
  0.128500D+00  0.395389D+00
   s     1 1.00
  0.905900D+00  0.100000D+01
   s     1 1.00
  0.364300D+00  0.100000D+01
   p     5 1.00
  0.187100D+02  0.140310D-01
  0.413300D+01  0.868660D-01
  0.120000D+01  0.290216D+00
  0.382700D+00  0.501008D+00
  0.120900D+00  0.343406D+00
   p     1 1.00
  0.382700D+00  0.100000D+01
   p     1 1.00
  0.120900D+00  0.100000D+01
   d     1 1.00
  0.109700D+01  0.100000D+01
   d     1 1.00
  0.318000D+00  0.100000D+01
   f     1 1.00
  0.761000D+00  0.100000D+01
  
  8  0
   s     4 1.00
  0.130100D+02  0.196850D-01
  0.196200D+01  0.137977D+00
  0.444600D+00  0.478148D+00
  0.122000D+00  0.501240D+00
   s     1 1.00
  0.122000D+00  0.100000D+01
   p     1 1.00
  0.727000D+00  0.100000D+01
  
  9  0
   s     4 1.00
  0.130100D+02  0.196850D-01
  0.196200D+01  0.137977D+00
  0.444600D+00  0.478148D+00
  0.122000D+00  0.501240D+00
   s     1 1.00
  0.122000D+00  0.100000D+01
   p     1 1.00
  0.727000D+00  0.100000D+01
  
 10  0
   s     4 1.00
  0.130100D+02  0.196850D-01
  0.196200D+01  0.137977D+00
  0.444600D+00  0.478148D+00
  0.122000D+00  0.501240D+00
   s     1 1.00
  0.122000D+00  0.100000D+01
   p     1 1.00
  0.727000D+00  0.100000D+01
  
 11  0
   s     4 1.00
  0.130100D+02  0.196850D-01
  0.196200D+01  0.137977D+00
  0.444600D+00  0.478148D+00
  0.122000D+00  0.501240D+00
   s     1 1.00
  0.122000D+00  0.100000D+01
   p     1 1.00
  0.727000D+00  0.100000D+01
  
 12  0
   s     4 1.00
  0.130100D+02  0.196850D-01
  0.196200D+01  0.137977D+00
  0.444600D+00  0.478148D+00
  0.122000D+00  0.501240D+00
   s     1 1.00
  0.122000D+00  0.100000D+01
   p     1 1.00
  0.727000D+00  0.100000D+01
  
 13  0
   s     4 1.00
  0.130100D+02  0.196850D-01
  0.196200D+01  0.137977D+00
  0.444600D+00  0.478148D+00
  0.122000D+00  0.501240D+00
   s     1 1.00
  0.122000D+00  0.100000D+01
   p     1 1.00
  0.727000D+00  0.100000D+01
  
 14  0
   s     4 1.00
  0.130100D+02  0.196850D-01
  0.196200D+01  0.137977D+00
  0.444600D+00  0.478148D+00
  0.122000D+00  0.501240D+00
   s     1 1.00
  0.122000D+00  0.100000D+01
   p     1 1.00
  0.727000D+00  0.100000D+01
  
[MO]
 Sym= __1_A__
 Ene=   1.00000000000000     
 Spin= Alpha
 Occup=    1.00000000000000     
                     1  1.464121323557816E-004
                     2  0.998136475093776     
                     3 -6.324888540031243E-003
                     4  1.978858782437496E-003
                     5  7.195665461900148E-003
                     6  7.339388185971347E-003
                     7 -3.596716406360098E-003
                     8  8.732571903804455E-003
                     9 -1.119430983296268E-003
                    10  3.348623527007447E-004
                    11 -9.733474021755235E-004
                    12 -2.420508716997505E-003
                    13  1.990374380459523E-003
                    14 -4.079093069519816E-003
                    15  5.392072841008153E-005
                    16 -6.457284117623818E-005
                    17 -3.616833094571149E-005
                    18  3.378460851358580E-005
                    19  3.210179206141825E-006
                    20  1.013869376165670E-005
                    21  6.329631210361561E-004
                    22 -2.322358628457568E-004
                    23  2.463774041232108E-004
                    24 -2.779505516103297E-004
                    25  1.835123897029552E-005
                    26 -8.997741499063267E-005
                    27  5.531842595998483E-005
                    28  2.263282080780646E-005
                    29  3.342077382562791E-006
                    30 -7.485935316674514E-005
                    31 -8.666184342225173E-006
                    32 -3.117393420777729E-004
                    33  2.345249270361364E-004
                    34  2.758365450852259E-004
                    35 -8.238933406822984E-006
                    36 -2.039380497304137E-003
                    37 -7.478948300739514E-004
                    38 -4.528614610812277E-004
                    39  1.356252788702623E-004
                    40 -1.218909312369881E-004
                    41  1.052084578628883E-003
                    42  4.579370010986026E-003
                    43  5.776962986108143E-004
                    44 -3.460462806678834E-003
                    45 -1.254759345116567E-004
                    46 -1.369289687112861E-005
                    47  1.477065418188868E-005
                    48  1.299914764564805E-004
                    49  3.044628349793449E-005
                    50  5.479371714832061E-004
                    51  8.028976110086543E-004
                    52 -9.267666728267999E-005
                    53 -2.024713163895830E-004
                    54 -2.389744650002693E-004
                    55  5.572977984180673E-005
                    56 -2.990594824524696E-005
                    57 -6.921085788761127E-006
                    58  6.363596289080956E-005
                    59 -3.101773416611462E-006
                    60 -3.896296845683686E-005
                    61 -3.409969988948449E-006
                    62 -8.120081212961862E-004
                    63 -2.555644138249452E-003
                    64 -9.630185787349515E-005
                    65  2.963078732891804E-003
                    66 -3.550928538428659E-004
                    67 -3.524729764315995E-004
                    68 -2.413047469591277E-004
                    69  8.551275601343149E-004
                    70 -4.443034113671852E-005
                    71  7.396076106768316E-004
                    72  1.708246379852211E-003
                    73  1.484649850340065E-004
                    74 -1.572380348925354E-003
                    75 -3.565374556438519E-005
                    76 -5.062036291797571E-005
                    77 -7.753979723272016E-006
                    78  7.483841063829628E-005
                    79  1.104635602733529E-005
                    80  4.962521244724481E-004
                    81  1.263922958617744E-004
                    82 -9.864063817675575E-005
                    83 -7.124114941898951E-005
                    84  5.348044192446095E-006
                    85 -2.594609844668256E-005
                    86 -1.555900497541463E-004
                    87 -2.154971489871715E-006
                    88  1.139441396055353E-005
                    89  2.294711543429016E-005
                    90 -7.492334926923955E-005
                    91 -7.022007829686361E-006
                    92  4.993755443277839E-005
                    93 -1.649223584519761E-004
                    94  3.362699881294590E-004
                    95 -1.398344560699784E-003
                    96  3.032806464925769E-004
                    97 -3.382787789729074E-004
                    98  2.308510863875802E-004
                    99  1.865860958864893E-004
                   100 -7.393544379141305E-006
                   101  5.490509992565081E-004
                   102 -2.393532852852373E-003
                   103 -6.699659657647148E-005
                   104  1.965302301126508E-004
                   105 -4.916572364308833E-005
                   106 -1.003498144287403E-005
                   107  1.036730636697624E-005
                   108  2.965243064036472E-005
                   109  4.141561542889877E-006
                   110 -1.406073013770875E-004
                   111 -1.818379093643749E-004
                   112  4.002644128136526E-005
                   113 -2.404242966564392E-004
                   114  2.516344040778358E-005
                   115 -3.112735666651982E-005
                   116  5.729662263706577E-005
                   117  2.713971093559144E-006
                   118  1.278591322385262E-005
                   119 -1.250417085489622E-005
                   120 -1.589134190406559E-006
                   121 -6.924683756677449E-006
                   122 -3.283526568103576E-004
                   123 -1.053142337125751E-003
                   124  1.223859469352118E-004
                   125  9.475663210547611E-004
                   126 -1.087961251758272E-004
                   127 -4.234838331681389E-005
                   128 -6.222013252647098E-005
                   129  5.646884177582269E-004
                   130 -2.488780013211788E-005
                   131  3.070963348476603E-004
                   132  2.771114653410147E-003
                   133  2.165519737353471E-005
                   134  4.887054841145985E-004
                   135  4.051397021594810E-005
                   136 -5.262132916581719E-006
                   137 -4.205513950421328E-006
                   138 -2.427029881953536E-005
                   139  9.011478793820233E-006
                   140  2.583031981441805E-004
                   141  3.672915250350565E-004
                   142  4.258671908839397E-006
                   143 -4.042863714684816E-004
                   144 -2.873735368391296E-005
                   145 -3.673622948380486E-005
                   146 -2.895303731973197E-005
                   147 -5.403347037498994E-006
                   148 -1.238153637599633E-005
                   149 -4.700020809638660E-006
                   150 -9.127406006226462E-005
                   151  9.657511007579234E-007
                   152 -1.453860942019603E-004
                   153 -3.229999008222981E-004
                   154 -6.450448439035118E-005
                   155  6.075731854414157E-004
                   156 -1.902888671634523E-004
                   157 -1.085369897921883E-005
                   158 -5.084419889813808E-005
                   159 -2.812516388459540E-004
                   160 -2.999334317383578E-005
                   161  2.443440293738548E-004
                   162 -1.144762890879787E-003
                   163 -6.373520807045697E-005
                   164  9.084344924595382E-004
                   165 -2.406604082609235E-005
                   166  8.778741341807081E-006
                   167  8.798590869675828E-007
                   168  2.429119998273180E-005
                   169  7.005758001731910E-006
                   170 -8.666537659357062E-005
                   171  1.593996250383816E-005
                   172  1.352635595832217E-005
                   173  6.114570897959214E-005
                   174  7.923041265474104E-006
                   175 -1.336242890301730E-005
                   176 -1.294997130067266E-006
                   177 -1.287336933408786E-006
                   178 -9.296574143523399E-006
                   179 -6.470886290554161E-007
                   180  8.647525959552306E-006
                   181 -1.063334754912335E-006
                   182 -1.601563108317396E-004
                   183 -4.904479166980498E-004
                   184  4.009600009121778E-005
                   185  2.150592918710645E-004
                   186 -3.142804148009459E-005
                   187  9.388188273511853E-005
                   188 -8.536465873430745E-005
                   189  9.778642066360499E-005
                   190 -2.989391558346851E-005
                   191  4.307701492822055E-004
                   192 -4.757905761683378E-004
                   193 -1.874513434624838E-004
                   194  2.161365667503760E-003
                   195 -1.825050460715563E-006
                   196  5.118814298830685E-006
                   197  7.027698705035302E-007
                   198 -9.271095674043864E-007
                   199  1.687823730863233E-007
                   200 -1.296141196260664E-004
                   201 -3.419768475405976E-004
                   202  1.626931539389775E-005
                   203  6.097833997641894E-005
                   204  3.151136316067213E-005
                   205  2.664950561926936E-006
                   206  5.237529414846667E-006
                   207 -1.688358412879261E-006
                   208  2.436452053132852E-005
                   209 -2.070389858609380E-006
                   210 -4.208300413882583E-006
                   211 -2.713330542473844E-006
                   212 -3.472769263839891E-004
                   213 -6.020906068357812E-004
                   214  1.067116015928882E-004
                   215  2.125502531129183E-004
                   216 -4.914501213610864E-005
                   217  8.938007401693717E-004
                   218 -1.070665696192672E-003
                   219  1.391620397601003E-004
                   220 -6.002580459841105E-005
                   221 -2.893667287996422E-004
                   222 -2.773620174816683E-004
                   223 -3.287441174818539E-004
                   224 -1.023893245923453E-004
                   225 -7.507269309043548E-006
                   226  5.639325504764183E-005
                   227 -1.450413763502573E-004
                   228 -5.803290784633076E-004
                   229 -2.396583648932986E-005
                   230  7.923402880870385E-006
                   231 -5.928176466637332E-005
                   232  1.596041496097224E-004
                   233 -6.993829956689028E-004
                   234 -2.161116514900470E-006
                   235 -1.411569838020673E-006
                   236  1.239612760132843E-005
                   237 -1.155140006051590E-004
                   238 -2.378256544788510E-004
                   239  1.732900813206762E-005
                   240 -2.269624707743598E-006
                   241  2.392694493742137E-005
                   242 -5.468274135270130E-005
                   243  1.388762489420748E-004
                   244  3.155145628402880E-005
                   245  3.518978670210785E-006
                   246  1.746560643288349E-006
 Sym= __2_A__
 Ene=   2.00000000000000     
 Spin= Alpha
 Occup=    1.00000000000000     
                     1  8.113392629548065E-007
                     2 -9.558941842793772E-005
                     3  8.195178643043713E-004
                     4 -1.915284639500809E-005
                     5  1.188625552658006E-003
                     6  1.313599177136321E-003
                     7 -2.015118739891378E-004
                     8  6.672674764284942E-005
                     9 -1.555331321835890E-004
                    10  9.756991941070770E-005
                    11 -6.856799951463794E-005
                    12  2.008376027148209E-004
                    13  1.396616253710706E-004
                    14 -5.300594253298634E-005
                    15 -5.268985075285804E-005
                    16  2.099783895658840E-005
                    17 -2.917192981891597E-006
                    18  4.761176751027076E-005
                    19 -5.671836047784940E-007
                    20  6.129071944567514E-005
                    21 -6.288601141189130E-005
                    22  1.163201707894671E-005
                    23  1.157789990077661E-004
                    24 -4.583683993898920E-005
                    25 -4.539425417722702E-005
                    26  1.252267519925138E-004
                    27  2.039544716328216E-005
                    28 -4.282007862100276E-005
                    29 -1.177717315314166E-005
                    30  1.185352974317923E-004
                    31  2.454535942230206E-005
                    32   1.00085291696263     
                    33  8.528420882628188E-003
                    34  2.859143621935831E-003
                    35 -8.426990809532584E-003
                    36 -1.583656474979138E-003
                    37  1.600773275206299E-004
                    38  1.264825415361818E-004
                    39  9.417280736034654E-004
                    40 -6.879005314838749E-005
                    41 -3.185563481138710E-004
                    42  2.626976735105065E-003
                    43 -9.117377182619253E-005
                    44  9.830583454394571E-005
                    45  3.140454652580888E-004
                    46  6.226969901762989E-006
                    47 -7.253393333582253E-005
                    48  3.314216533359546E-004
                    49  4.343986953091755E-006
                    50 -9.694158584972902E-004
                    51 -2.860706634416019E-004
                    52  1.754956853769635E-004
                    53 -1.591426645386249E-004
                    54  1.932124312315130E-005
                    55 -1.871166813672462E-005
                    56  2.612094039278924E-004
                    57 -6.098162150138456E-006
                    58 -2.898178496000176E-005
                    59 -2.842053696898351E-005
                    60  6.676342654128883E-005
                    61  6.977920843020599E-006
                    62  1.583100363513354E-002
                    63 -1.571758652839780E-003
                    64 -2.874624116505157E-004
                    65  2.821213535014229E-003
                    66 -2.633964059644046E-004
                    67 -3.152922467887581E-005
                    68  3.946820854515101E-004
                    69  3.762740729867547E-005
                    70 -3.638317801273030E-005
                    71  3.245764512649849E-004
                    72  3.172930036404828E-004
                    73  2.105610095764511E-004
                    74 -1.732189315640777E-003
                    75  5.773287235838606E-006
                    76  2.509215415976335E-005
                    77  2.221619587577367E-006
                    78 -4.506922336272564E-005
                    79 -2.426185976026467E-006
                    80 -5.025063862912869E-004
                    81 -3.761610974124950E-004
                    82  2.065060987207688E-005
                    83  8.007369041510125E-004
                    84  4.176897208915711E-005
                    85  3.611904675681414E-005
                    86  1.050262767638632E-004
                    87  1.731328103880726E-005
                    88 -2.616199376422776E-005
                    89 -2.262157159467115E-005
                    90 -2.564411327707477E-005
                    91  3.757625738257002E-006
                    92  1.815401926852685E-002
                    93 -1.650478689378673E-003
                    94 -3.362522038691262E-004
                    95  3.316182422823855E-003
                    96 -2.709453656188685E-004
                    97  3.728700485516381E-005
                    98 -3.680324066098200E-004
                    99 -9.430541206358590E-005
                   100  7.489684893881353E-005
                   101 -7.340443492752744E-004
                   102  2.652551491643464E-004
                   103 -1.218683287837994E-004
                   104  1.571978971750965E-003
                   105  9.557398056432492E-006
                   106 -5.593177087470339E-006
                   107  1.895701652272719E-006
                   108 -2.702468472014870E-005
                   109 -4.352133513310307E-007
                   110 -2.161940729845383E-004
                   111  4.904467900576194E-004
                   112 -3.698459960709615E-005
                   113  6.319746452738996E-004
                   114 -4.046706085097968E-005
                   115 -4.743054252187383E-005
                   116  8.868943875739948E-005
                   117 -9.620503079850637E-006
                   118  1.973899392759153E-005
                   119 -1.171680036709082E-005
                   120 -3.028220974762036E-005
                   121 -7.245180553132572E-007
                   122 -7.554527907844400E-005
                   123 -7.535064764023534E-004
                   124  2.429276480162666E-004
                   125 -3.538016991004218E-004
                   126 -1.093771479672183E-004
                   127  6.006877467393362E-006
                   128 -5.423434030198985E-005
                   129  6.197460360349002E-004
                   130 -4.135468996266657E-006
                   131  6.415827215450239E-005
                   132  4.631419556999230E-004
                   133 -4.632327644786587E-005
                   134  4.012833152727237E-004
                   135  1.388911113551760E-006
                   136  3.683391986582837E-005
                   137  3.518941512267094E-006
                   138 -3.799838220272636E-005
                   139 -4.680927071061874E-006
                   140  1.908110406660655E-004
                   141 -2.784634076326363E-004
                   142 -1.175697070885635E-005
                   143 -2.312826035422462E-004
                   144  2.587217821961414E-005
                   145 -1.102212795624161E-005
                   146  1.232780736908335E-005
                   147 -2.193988395117843E-006
                   148 -4.217404037407750E-006
                   149 -3.796071465517379E-006
                   150 -2.040036263985989E-005
                   151  1.427744229138719E-006
                   152 -1.274417184834588E-005
                   153 -7.868988515805233E-004
                   154  2.343711947107909E-004
                   155 -1.828833676138779E-004
                   156 -9.376375723686906E-005
                   157 -1.022322556933616E-005
                   158  3.670328413254826E-005
                   159  4.970087435304151E-004
                   160  1.167077582105135E-005