[Molden Format]
[Atoms] AU
  N     1    7    -0.0056078000   -4.2818552200    0.0000000100        
  C     2    6     0.1023880000   -1.7452831600    0.0000000000        
  C     3    6    -2.2360633200   -0.3803470300    0.0000000200        
  C     4    6     2.3914369100   -0.2937808000   -0.0000000300        
  C     5    6    -2.2500272700    2.2016241100   -0.0000000100        
  C     6    6     2.3278224000    2.2854989300    0.0000000000        
  C     7    6     0.0186025300    3.5636975500    0.0000000000        
  H     8    1    -3.9506348300   -7.2105341300    0.0000000200        
  H     9    1     1.8026092300   -5.0070519500    0.0000000000        
  H    10    1    -3.9595274700   -1.4427187200    0.0000000100        
  H    11    1     4.1659200800   -1.2794669300   -0.0000000300        
  H    12    1    -4.0138949200    3.2050827200   -0.0000000400        
  H    13    1     4.0574247600    3.3470683800    0.0000000300        
  H    14    1    -0.0176804700    5.5913906500    0.0000000100        
[5D]
[7F]
[GTO]
  1  0
   s    12 1.00
  0.114200D+05  0.172695D-04
  0.171200D+04  0.134411D-03
  0.389300D+03  0.694561D-03
  0.110000D+03  0.278531D-02
  0.355700D+02  0.863457D-02
  0.125400D+02  0.199805D-01
  0.464400D+01  0.262908D-01
  0.129300D+01 -0.243845D-01
  0.511800D+00 -0.924934D-01
  0.178700D+00 -0.339683D+00
  0.246240D-01  0.345111D+00
  0.112530D-01  0.752750D+00
   s    10 1.00
  0.114200D+05  0.523000D-03
  0.171200D+04  0.404500D-02
  0.389300D+03  0.207750D-01
  0.110000D+03  0.807269D-01
  0.355700D+02  0.233074D+00
  0.125400D+02  0.433501D+00
  0.464400D+01  0.347472D+00
  0.129300D+01  0.412620D-01
  0.511800D+00 -0.850799D-02
  0.178700D+00  0.238400D-02
   s    10 1.00
  0.114200D+05 -0.115000D-03
  0.171200D+04 -0.895000D-03
  0.389300D+03 -0.462400D-02
  0.110000D+03 -0.185280D-01
  0.355700D+02 -0.573390D-01
  0.125400D+02 -0.132076D+00
  0.464400D+01 -0.172510D+00
  0.129300D+01  0.151814D+00
  0.511800D+00  0.599944D+00
  0.178700D+00  0.387462D+00
   s     1 1.00
  0.129300D+01  0.100000D+01
   s     1 1.00
  0.178700D+00  0.100000D+01
   p     5 1.00
  0.266300D+02  0.146700D-01
  0.594800D+01  0.917640D-01
  0.174200D+01  0.298683D+00
  0.555000D+00  0.498487D+00
  0.172500D+00  0.337023D+00
   p     1 1.00
  0.174200D+01  0.100000D+01
   p     1 1.00
  0.555000D+00  0.100000D+01
   d     1 1.00
  0.165400D+01  0.100000D+01
   d     1 1.00
  0.469000D+00  0.100000D+01
   f     1 1.00
  0.109300D+01  0.100000D+01
  
  2  0
   s    10 1.00
  0.823600D+04  0.531000D-03
  0.123500D+04  0.410800D-02
  0.280800D+03  0.210870D-01
  0.792700D+02  0.818530D-01
  0.255900D+02  0.234817D+00
  0.899700D+01  0.434401D+00
  0.331900D+01  0.346129D+00
  0.905900D+00  0.393780D-01
  0.364300D+00 -0.898300D-02
  0.128500D+00  0.238500D-02
   s    10 1.00
  0.823600D+04 -0.113000D-03
  0.123500D+04 -0.878000D-03
  0.280800D+03 -0.454000D-02
  0.792700D+02 -0.181330D-01
  0.255900D+02 -0.557600D-01
  0.899700D+01 -0.126895D+00
  0.331900D+01 -0.170352D+00
  0.905900D+00  0.140382D+00
  0.364300D+00  0.598684D+00
  0.128500D+00  0.395389D+00
   s     1 1.00
  0.905900D+00  0.100000D+01
   s     1 1.00
  0.364300D+00  0.100000D+01
   p     5 1.00
  0.187100D+02  0.140310D-01
  0.413300D+01  0.868660D-01
  0.120000D+01  0.290216D+00
  0.382700D+00  0.501008D+00
  0.120900D+00  0.343406D+00
   p     1 1.00
  0.382700D+00  0.100000D+01
   p     1 1.00
  0.120900D+00  0.100000D+01
   d     1 1.00
  0.109700D+01  0.100000D+01
   d     1 1.00
  0.318000D+00  0.100000D+01
   f     1 1.00
  0.761000D+00  0.100000D+01
  
  3  0
   s    10 1.00
  0.823600D+04  0.531000D-03
  0.123500D+04  0.410800D-02
  0.280800D+03  0.210870D-01
  0.792700D+02  0.818530D-01
  0.255900D+02  0.234817D+00
  0.899700D+01  0.434401D+00
  0.331900D+01  0.346129D+00
  0.905900D+00  0.393780D-01
  0.364300D+00 -0.898300D-02
  0.128500D+00  0.238500D-02
   s    10 1.00
  0.823600D+04 -0.113000D-03
  0.123500D+04 -0.878000D-03
  0.280800D+03 -0.454000D-02
  0.792700D+02 -0.181330D-01
  0.255900D+02 -0.557600D-01
  0.899700D+01 -0.126895D+00
  0.331900D+01 -0.170352D+00
  0.905900D+00  0.140382D+00
  0.364300D+00  0.598684D+00
  0.128500D+00  0.395389D+00
   s     1 1.00
  0.905900D+00  0.100000D+01
   s     1 1.00
  0.364300D+00  0.100000D+01
   p     5 1.00
  0.187100D+02  0.140310D-01
  0.413300D+01  0.868660D-01
  0.120000D+01  0.290216D+00
  0.382700D+00  0.501008D+00
  0.120900D+00  0.343406D+00
   p     1 1.00
  0.382700D+00  0.100000D+01
   p     1 1.00
  0.120900D+00  0.100000D+01
   d     1 1.00
  0.109700D+01  0.100000D+01
   d     1 1.00
  0.318000D+00  0.100000D+01
   f     1 1.00
  0.761000D+00  0.100000D+01
  
  4  0
   s    10 1.00
  0.823600D+04  0.531000D-03
  0.123500D+04  0.410800D-02
  0.280800D+03  0.210870D-01
  0.792700D+02  0.818530D-01
  0.255900D+02  0.234817D+00
  0.899700D+01  0.434401D+00
  0.331900D+01  0.346129D+00
  0.905900D+00  0.393780D-01
  0.364300D+00 -0.898300D-02
  0.128500D+00  0.238500D-02
   s    10 1.00
  0.823600D+04 -0.113000D-03
  0.123500D+04 -0.878000D-03
  0.280800D+03 -0.454000D-02
  0.792700D+02 -0.181330D-01
  0.255900D+02 -0.557600D-01
  0.899700D+01 -0.126895D+00
  0.331900D+01 -0.170352D+00
  0.905900D+00  0.140382D+00
  0.364300D+00  0.598684D+00
  0.128500D+00  0.395389D+00
   s     1 1.00
  0.905900D+00  0.100000D+01
   s     1 1.00
  0.364300D+00  0.100000D+01
   p     5 1.00
  0.187100D+02  0.140310D-01
  0.413300D+01  0.868660D-01
  0.120000D+01  0.290216D+00
  0.382700D+00  0.501008D+00
  0.120900D+00  0.343406D+00
   p     1 1.00
  0.382700D+00  0.100000D+01
   p     1 1.00
  0.120900D+00  0.100000D+01
   d     1 1.00
  0.109700D+01  0.100000D+01
   d     1 1.00
  0.318000D+00  0.100000D+01
   f     1 1.00
  0.761000D+00  0.100000D+01
  
  5  0
   s    10 1.00
  0.823600D+04  0.531000D-03
  0.123500D+04  0.410800D-02
  0.280800D+03  0.210870D-01
  0.792700D+02  0.818530D-01
  0.255900D+02  0.234817D+00
  0.899700D+01  0.434401D+00
  0.331900D+01  0.346129D+00
  0.905900D+00  0.393780D-01
  0.364300D+00 -0.898300D-02
  0.128500D+00  0.238500D-02
   s    10 1.00
  0.823600D+04 -0.113000D-03
  0.123500D+04 -0.878000D-03
  0.280800D+03 -0.454000D-02
  0.792700D+02 -0.181330D-01
  0.255900D+02 -0.557600D-01
  0.899700D+01 -0.126895D+00
  0.331900D+01 -0.170352D+00
  0.905900D+00  0.140382D+00
  0.364300D+00  0.598684D+00
  0.128500D+00  0.395389D+00
   s     1 1.00
  0.905900D+00  0.100000D+01
   s     1 1.00
  0.364300D+00  0.100000D+01
   p     5 1.00
  0.187100D+02  0.140310D-01
  0.413300D+01  0.868660D-01
  0.120000D+01  0.290216D+00
  0.382700D+00  0.501008D+00
  0.120900D+00  0.343406D+00
   p     1 1.00
  0.382700D+00  0.100000D+01
   p     1 1.00
  0.120900D+00  0.100000D+01
   d     1 1.00
  0.109700D+01  0.100000D+01
   d     1 1.00
  0.318000D+00  0.100000D+01
   f     1 1.00
  0.761000D+00  0.100000D+01
  
  6  0
   s    10 1.00
  0.823600D+04  0.531000D-03
  0.123500D+04  0.410800D-02
  0.280800D+03  0.210870D-01
  0.792700D+02  0.818530D-01
  0.255900D+02  0.234817D+00
  0.899700D+01  0.434401D+00
  0.331900D+01  0.346129D+00
  0.905900D+00  0.393780D-01
  0.364300D+00 -0.898300D-02
  0.128500D+00  0.238500D-02
   s    10 1.00
  0.823600D+04 -0.113000D-03
  0.123500D+04 -0.878000D-03
  0.280800D+03 -0.454000D-02
  0.792700D+02 -0.181330D-01
  0.255900D+02 -0.557600D-01
  0.899700D+01 -0.126895D+00
  0.331900D+01 -0.170352D+00
  0.905900D+00  0.140382D+00
  0.364300D+00  0.598684D+00
  0.128500D+00  0.395389D+00
   s     1 1.00
  0.905900D+00  0.100000D+01
   s     1 1.00
  0.364300D+00  0.100000D+01
   p     5 1.00
  0.187100D+02  0.140310D-01
  0.413300D+01  0.868660D-01
  0.120000D+01  0.290216D+00
  0.382700D+00  0.501008D+00
  0.120900D+00  0.343406D+00
   p     1 1.00
  0.382700D+00  0.100000D+01
   p     1 1.00
  0.120900D+00  0.100000D+01
   d     1 1.00
  0.109700D+01  0.100000D+01
   d     1 1.00
  0.318000D+00  0.100000D+01
   f     1 1.00
  0.761000D+00  0.100000D+01
  
  7  0
   s    10 1.00
  0.823600D+04  0.531000D-03
  0.123500D+04  0.410800D-02
  0.280800D+03  0.210870D-01
  0.792700D+02  0.818530D-01
  0.255900D+02  0.234817D+00
  0.899700D+01  0.434401D+00
  0.331900D+01  0.346129D+00
  0.905900D+00  0.393780D-01
  0.364300D+00 -0.898300D-02
  0.128500D+00  0.238500D-02
   s    10 1.00
  0.823600D+04 -0.113000D-03
  0.123500D+04 -0.878000D-03
  0.280800D+03 -0.454000D-02
  0.792700D+02 -0.181330D-01
  0.255900D+02 -0.557600D-01
  0.899700D+01 -0.126895D+00
  0.331900D+01 -0.170352D+00
  0.905900D+00  0.140382D+00
  0.364300D+00  0.598684D+00
  0.128500D+00  0.395389D+00
   s     1 1.00
  0.905900D+00  0.100000D+01
   s     1 1.00
  0.364300D+00  0.100000D+01
   p     5 1.00
  0.187100D+02  0.140310D-01
  0.413300D+01  0.868660D-01
  0.120000D+01  0.290216D+00
  0.382700D+00  0.501008D+00
  0.120900D+00  0.343406D+00
   p     1 1.00
  0.382700D+00  0.100000D+01
   p     1 1.00
  0.120900D+00  0.100000D+01
   d     1 1.00
  0.109700D+01  0.100000D+01
   d     1 1.00
  0.318000D+00  0.100000D+01
   f     1 1.00
  0.761000D+00  0.100000D+01
  
  8  0
   s     4 1.00
  0.130100D+02  0.196850D-01
  0.196200D+01  0.137977D+00
  0.444600D+00  0.478148D+00
  0.122000D+00  0.501240D+00
   s     1 1.00
  0.122000D+00  0.100000D+01
   p     1 1.00
  0.727000D+00  0.100000D+01
  
  9  0
   s     4 1.00
  0.130100D+02  0.196850D-01
  0.196200D+01  0.137977D+00
  0.444600D+00  0.478148D+00
  0.122000D+00  0.501240D+00
   s     1 1.00
  0.122000D+00  0.100000D+01
   p     1 1.00
  0.727000D+00  0.100000D+01
  
 10  0
   s     4 1.00
  0.130100D+02  0.196850D-01
  0.196200D+01  0.137977D+00
  0.444600D+00  0.478148D+00
  0.122000D+00  0.501240D+00
   s     1 1.00
  0.122000D+00  0.100000D+01
   p     1 1.00
  0.727000D+00  0.100000D+01
  
 11  0
   s     4 1.00
  0.130100D+02  0.196850D-01
  0.196200D+01  0.137977D+00
  0.444600D+00  0.478148D+00
  0.122000D+00  0.501240D+00
   s     1 1.00
  0.122000D+00  0.100000D+01
   p     1 1.00
  0.727000D+00  0.100000D+01
  
 12  0
   s     4 1.00
  0.130100D+02  0.196850D-01
  0.196200D+01  0.137977D+00
  0.444600D+00  0.478148D+00
  0.122000D+00  0.501240D+00
   s     1 1.00
  0.122000D+00  0.100000D+01
   p     1 1.00
  0.727000D+00  0.100000D+01
  
 13  0
   s     4 1.00
  0.130100D+02  0.196850D-01
  0.196200D+01  0.137977D+00
  0.444600D+00  0.478148D+00
  0.122000D+00  0.501240D+00
   s     1 1.00
  0.122000D+00  0.100000D+01
   p     1 1.00
  0.727000D+00  0.100000D+01
  
 14  0
   s     4 1.00
  0.130100D+02  0.196850D-01
  0.196200D+01  0.137977D+00
  0.444600D+00  0.478148D+00
  0.122000D+00  0.501240D+00
   s     1 1.00
  0.122000D+00  0.100000D+01
   p     1 1.00
  0.727000D+00  0.100000D+01
  
[MO]
 Sym= __1_A__
 Ene=   1.00000000000000     
 Spin= Alpha
 Occup=    1.00000000000000     
                     1  9.618737873559897E-005
                     2  0.998372849215434     
                     3 -3.760434143645019E-003
                     4  1.845274446960828E-003
                     5  6.542262259337485E-003
                     6  2.748470467799138E-003
                     7  5.643827207779032E-003
                     8 -3.413320389113478E-011
                     9 -7.180682352049074E-004
                    10 -7.343502120844247E-004
                    11  1.794660447558995E-010
                    12 -2.458055418156222E-003
                    13 -1.970699163496755E-003
                    14 -3.386300079444439E-010
                    15 -2.608975393273408E-005
                    16  5.728439437017986E-011
                    17  1.034910031604022E-011
                    18 -1.480681774248643E-004
                    19 -6.218381184541893E-005
                    20  1.037141171637541E-004
                    21 -4.527810795475979E-011
                    22 -2.454496271585505E-010
                    23 -1.827562869022532E-004
                    24  4.820292021133635E-004
                    25 -2.733930812559091E-010
                    26 -3.534002428525389E-006
                    27 -4.409624472588124E-005
                    28  1.543982513366512E-010
                    29 -2.328709293963600E-010
                    30  3.337994958558154E-005
                    31 -1.017586143139050E-004
                    32 -3.107054360180182E-004
                    33  3.648361351260550E-005
                    34  3.162277976360896E-004
                    35 -9.736345740370088E-005
                    36 -5.384434467925175E-005
                    37 -2.025545521913255E-003
                    38 -1.857683377674289E-010
                    39  3.529418435417955E-004
                    40  1.200661051895146E-004
                    41  2.325593055202598E-010
                    42 -2.068381972954732E-003
                    43  4.825683101974496E-003
                    44 -1.016649533158224E-010
                    45  1.173867511344392E-005
                    46 -8.000556760353485E-012
                    47 -2.818143298226401E-011
                    48 -1.032196542163679E-004
                    49  1.239326433788829E-005
                    50 -1.894280239213761E-004
                    51  4.536207426448701E-011
                    52 -3.043139250773303E-010
                    53  5.196901163393694E-006
                    54  7.604566205676875E-004
                    55  7.107969128579882E-011
                    56 -3.560055524783344E-006
                    57 -7.896018886101586E-005
                    58 -1.693514289224720E-010
                    59 -2.737094095009677E-011
                    60  1.794156140253931E-005
                    61 -1.324636781680909E-004
                    62 -5.378229116902688E-004
                    63 -2.027528193387770E-003
                    64 -9.430797024868438E-005
                    65  2.215180939882114E-003
                    66 -3.511610006544334E-004
                    67 -4.221374756676350E-006
                    68 -9.880326444025374E-011
                    69  3.726806623055248E-004
                    70  8.822572992102308E-004
                    71  4.457414082090510E-011
                    72 -1.785105888486024E-003
                    73  6.489404722075478E-004
                    74  3.607849435982039E-011
                    75 -4.677637133802134E-005
                    76 -7.875770639042774E-012
                    77  1.521875054823530E-011
                    78 -5.119964563763094E-005
                    79 -2.391884961782745E-005
                    80 -1.347945537857054E-004
                    81  7.234239837435782E-011
                    82 -4.411245238950465E-011
                    83  2.437856567001124E-005
                    84 -1.308262847916996E-005
                    85  5.107145820908446E-011
                    86  9.188780983921108E-006
                    87 -4.592804117937513E-005
                    88 -7.510129174377742E-011
                    89 -1.514086726454877E-011
                    90 -3.063252484503421E-005
                    91 -1.562471903075268E-004
                    92 -1.752696730848039E-004
                    93 -5.408876071333014E-004
                    94  1.512619964449871E-004
                    95 -5.764819607816540E-005
                    96  9.001802919594647E-005
                    97 -9.642503641556360E-005
                    98 -1.002936756810305E-010
                    99  3.366677457047455E-004
                   100  3.728823827433758E-004
                   101  1.889287564057838E-011
                   102  6.200529286335521E-004
                   103 -1.699978488018575E-003
                   104 -2.756682085109775E-011
                   105 -1.407433503906976E-005
                   106  1.262142464481818E-012
                   107  1.663110570310048E-011
                   108 -3.657692317379944E-005
                   109 -1.223170085977417E-005
                   110  7.762164108057150E-005
                   111 -4.161375652335899E-011
                   112 -5.198721318182525E-011
                   113 -1.558131892871115E-004
                   114  1.046294488762144E-004
                   115  5.482414887315155E-011
                   116 -1.788388522860466E-005
                   117 -2.172136013754068E-005
                   118 -7.459691293405646E-011
                   119  4.859337435419567E-012
                   120 -9.828750852563201E-006
                   121 -4.175630151404345E-005
                   122 -2.420314307275733E-004
                   123 -6.525936553355006E-004
                   124  1.721314561454837E-004
                   125  2.900266265544710E-004
                   126 -3.449700601455132E-005
                   127 -2.369517295726369E-004
                   128 -1.534986188116800E-011
                   129  2.344934671908279E-004
                   130  6.475394837822356E-004
                   131 -1.039479078219447E-011
                   132  4.234255703688280E-004
                   133  1.932172911306562E-003
                   134  5.135849015507258E-011
                   135  1.503643328044739E-005
                   136  9.293110814962851E-012
                   137  3.670972767040888E-010
                   138  4.869869988473736E-005
                   139 -3.590885570679156E-006
                   140  2.047597768124113E-004
                   141  2.333553693123328E-011
                   142 -2.066420934183954E-010
                   143  3.952687696600284E-004
                   144  2.150972010851456E-004
                   145 -3.096120704866354E-012
                   146 -1.209313668541384E-005
                   147 -6.391706682805129E-005
                   148  2.659178074313158E-011
                   149  1.224894092201199E-011
                   150 -1.199802407343727E-005
                   151 -5.553547217397013E-005
                   152 -1.325425497074356E-004
                   153 -4.076632669686109E-004
                   154  5.539407137169827E-005
                   155  1.966823542005270E-004
                   156  7.664813381676978E-006
                   157 -1.628360487165202E-005
                   158 -3.694049343731213E-011
                   159 -3.267284386924784E-006
                   160  4.706135762426495E-005
                   161  4.938631017262078E-012
                   162  7.356343514842073E-004
                   163 -3.614554206917977E-004
                   164  9.955831802500088E-011
                   165  2.026816782829949E-006
                   166 -1.103851682031464E-011
                   167  3.916247951091370E-010
                   168  4.468996224117430E-006
                   169  1.261650510263792E-005
                   170  1.066316516069378E-004
                   171 -3.013397630799978E-011
                   172 -2.539194691710503E-010
                   173  4.752310191160030E-005
                   174  3.812572666732341E-005
                   175  1.460011349201349E-012
                   176  4.216614613859441E-006
                   177 -1.399917777467849E-005
                   178  2.586335045432680E-011
                   179 -1.518264489213689E-011
                   180 -2.506164806470721E-005
                   181 -3.020072794463454E-005
                   182 -1.359244703581811E-004
                   183 -4.009653704618453E-004
                   184  3.105120424855160E-005
                   185  2.089620505235027E-004
                   186 -4.577850266406384E-005
                   187 -6.031633459528647E-005
                   188  4.726766969051452E-011
                   189  2.574123880268821E-004
                   190  1.193228270212070E-004
                   191 -2.487662431578016E-011
                   192  1.303072172828483E-003
                   193 -3.102500386074000E-004
                   194 -1.399660676211105E-011
                   195  8.848762543202805E-007
                   196  2.860251400492207E-013
                   197  3.350822809213997E-011
                   198 -2.592165681482992E-006
                   199  4.163431817129876E-006
                   200 -8.078211468306797E-006
                   201 -7.345731254408791E-012
                   202  8.450821769706757E-011
                   203 -6.676231645236902E-005
                   204 -1.978162766349970E-004
                   205 -4.728055021050620E-011
                   206 -9.471755231245719E-006
                   207 -3.837010874676233E-006
                   208 -3.258341023745588E-011
                   209  3.308093463865052E-012
                   210  7.822197018492474E-006
                   211 -3.921477537778547E-006
                   212 -2.396579785643174E-005
                   213  1.076912858711398E-004
                   214  1.979732327221530E-005
                   215  2.692424467001420E-005
                   216 -7.680239524570435E-013
                   217 -1.145138621651812E-003
                   218 -4.627886940328834E-004
                   219 -2.126137998234626E-004
                   220  4.169402045422280E-005
                   221 -2.242806533685659E-011
                   222 -1.677403289859412E-004
                   223 -6.335932523217429E-004
                   224  2.385056196819293E-005
                   225 -5.899553546059677E-005
                   226  1.156112092351101E-011
                   227  8.623234064297179E-005
                   228 -6.423224495740311E-004
                   229 -4.453004470010350E-005
                   230 -1.511987397308917E-005
                   231  8.407292392524253E-012
                   232  4.078193189317144E-005
                   233 -4.660907567942687E-004
                   234  1.439078826415328E-005
                   235 -4.102524225475825E-006
                   236  1.200852431289198E-011
                   237  3.470231516810936E-005
                   238 -3.575627706740320E-004
                   239 -9.341261570902032E-006
                   240 -3.032216872196785E-006
                   241  1.562596572473875E-011
                   242 -7.052240043067179E-005
                   243  9.032807947399259E-005
                   244 -2.228771873632759E-008
                   245  2.962295081790993E-005
                   246 -3.798082739970870E-011
 Sym= __2_A__
 Ene=   2.00000000000000     
 Spin= Alpha
 Occup=    1.00000000000000     
                     1  4.662271834852975E-005
                     2  3.247250672502743E-004
                     3 -3.036195508495365E-003
                     4 -1.161016762199829E-004
                     5 -1.344491168253214E-003
                     6  4.137088269332834E-004
                     7 -2.879187155551740E-003
                     8  1.043458693475883E-010
                     9  2.121420621652272E-005
                    10  1.066031850978384E-004
                    11 -2.833515009013937E-011
                    12  3.789944119190543E-005
                    13  2.883075592669591E-004
                    14  9.323183304604952E-011
                    15 -2.530869489020401E-005
                    16 -2.133084604197012E-012
                    17 -9.558493231293591E-012
                    18  4.776771904865862E-005
                    19 -2.039094778426413E-005
                    20  1.188043145524142E-004
                    21  6.391625297927074E-012
                    22  1.598037928538048E-010
                    23 -1.059850730954004E-004
                    24  1.508500316775326E-004
                    25  1.285549947535893E-010
                    26  1.783125530110995E-005
                    27 -9.256756844798939E-005
                    28 -1.225710695450017E-010
                    29  1.708020889103843E-010
                    30  6.543766459645765E-005
                    31 -1.452986517113701E-004
                    32  -1.00088144518064     
                    33 -9.054575772401079E-003
                    34 -2.767732602563890E-003
                    35  8.074324467120359E-003
                    36  2.142070877045758E-004
                    37  3.381888089482792E-003
                    38  2.115576924390228E-011
                    39  1.410278661007377E-004
                    40 -2.238101175143558E-004
                    41 -3.369715721571007E-011
                    42  1.616633250163810E-004
                    43 -4.050616869070789E-003
                    44  4.395903481671030E-010
                    45  5.244321463943191E-004
                    46 -3.698311324210494E-011
                    47  1.661002841768783E-011
                    48  1.979143119005808E-004
                    49 -3.138501981188213E-005
                    50 -5.538985669297254E-004
                    51 -6.397922971343260E-011
                    52  3.484319628951909E-010
                    53  6.593769693361055E-004
                    54  4.297397943309577E-004
                    55 -2.067704259517034E-011
                    56 -1.432032584110023E-005
                    57 -9.907040125972941E-005
                    58  7.566745346788400E-011
                    59  2.330284779206065E-011
                    60  2.257571102465147E-005
                    61 -3.786074719513962E-004
                    62 -1.273395066955096E-002
                    63  2.066020370032708E-003
                    64  2.323574550012088E-004
                    65 -2.693301209967694E-003
                    66 -9.249069937683524E-006
                    67 -1.633231563203333E-004
                    68  1.567706586243155E-010
                    69 -5.075493947827826E-004
                    70 -1.609950989748526E-004
                    71 -2.401935438046677E-010
                    72  2.094363205359465E-003
                    73 -2.607113087878129E-004
                    74 -5.209244359141172E-010
                    75 -3.507280438173144E-005
                    76  2.472008822374053E-011
                    77  8.061867121045683E-012
                    78  1.060867926699880E-005
                    79 -4.178645596518293E-006
                    80  4.275148043291009E-004
                    81 -2.523016480788038E-010
                    82 -1.694941296378933E-010
                    83  6.668590605166374E-004
                    84  2.623330416923051E-004
                    85 -3.528308044481067E-011
                    86 -2.957810896071357E-005
                    87  5.848465716724558E-005
                    88  3.321750483856064E-011
                    89 -2.362236673800502E-011
                    90 -4.749218259881161E-005
                    91 -1.478375423249211E-004
                    92 -1.565250716486765E-002
                    93  2.144554703300760E-003
                    94  2.997867376295233E-004
                    95 -3.183058802291836E-003
                    96 -2.563294949061048E-004
                    97 -2.728106517942462E-004
                    98  1.579755438334247E-010
                    99  9.403537766803992E-004
                   100  9.264189693501180E-007
                   101 -2.827954166833310E-010
                   102 -1.693821112240083E-003
                   103  2.956806009452610E-005
                   104 -4.937747614876488E-010
                   105 -2.323025880521419E-005
                   106 -1.618170153937017E-011
                   107  1.430988223322120E-011
                   108  1.085334063456171E-005
                   109 -2.703554085508446E-006
                   110  4.184001476954613E-004
                   111  2.298877462807290E-010
                   112 -2.420336411774098E-010
                   113  3.923441259199496E-004
                   114 -2.400784094011234E-004
                   115 -3.660528662911308E-011
                   116  3.169458201070342E-005
                   117  7.361430721941376E-005
                   118  4.322774545720320E-011
                   119  4.142892792258315E-011
                   120  2.134450148828243E-006
                   121 -1.345842003809920E-004
                   122  5.906614599921220E-005
                   123  6.407166126369035E-004
                   124 -2.296614947452188E-004
                   125  1.343912175221368E-004
                   126 -2.749321201669975E-006
                   127  4.330187039996651E-004
                   128 -2.585275917741348E-010
                   129  7.861575513225496E-005
                   130 -6.256219914467158E-004
                   131  6.837011986532902E-010
                   132 -3.701566090897476E-004
                   133 -9.305450915421073E-004
                   134  9.103761950978980E-010
                   135 -1.836222966431472E-005
                   136 -6.331129900221756E-011
                   137  3.807667802021169E-011
                   138 -2.190545832060320E-006
                   139 -4.462407770636031E-005
                   140 -1.287767044062942E-004
                   141  8.225942657163226E-010
                   142 -1.179155199136045E-010
                   143 -2.585064715199378E-004
                   144  1.041329398029059E-004
                   145  1.391491511307376E-010
                   146 -9.115144303141413E-006
                   147  3.639514787430317E-005
                   148  1.036343856393224E-010
                   149  9.550681933108334E-011
                   150  4.328816879954976E-005
                   151 -3.782813754044458E-005
                   152 -1.637579588431206E-004
                   153  5.993216250175483E-004
                   154 -2.288429240634420E-004
                   155  4.809907827706670E-005
                   156  4.352082216190385E-005
                   157  4.828545944881297E-004
                   158 -2.281866998211851E-010
                   159 -1.342715981419048E-004
                   160 -5.508940853449009E-004