[Molden Format]
[Atoms] AU
  N     1    7    -0.0056078000   -4.2818552200    0.0000000100        
  C     2    6     0.1023880000   -1.7452831600    0.0000000000        
  C     3    6    -2.2360633200   -0.3803470300    0.0000000200        
  C     4    6     2.3914369100   -0.2937808000   -0.0000000300        
  C     5    6    -2.2500272700    2.2016241100   -0.0000000100        
  C     6    6     2.3278224000    2.2854989300    0.0000000000        
  C     7    6     0.0186025300    3.5636975500    0.0000000000        
  H     8    1    -3.9506348300   -7.2105341300    0.0000000200        
  H     9    1     1.8026092300   -5.0070519500    0.0000000000        
  H    10    1    -3.9595274700   -1.4427187200    0.0000000100        
  H    11    1     4.1659200800   -1.2794669300   -0.0000000300        
  H    12    1    -4.0138949200    3.2050827200   -0.0000000400        
  H    13    1     4.0574247600    3.3470683800    0.0000000300        
  H    14    1    -0.0176804700    5.5913906500    0.0000000100        
[5D]
[7F]
[GTO]
  1  0
   s    12 1.00
  0.114200D+05  0.172695D-04
  0.171200D+04  0.134411D-03
  0.389300D+03  0.694561D-03
  0.110000D+03  0.278531D-02
  0.355700D+02  0.863457D-02
  0.125400D+02  0.199805D-01
  0.464400D+01  0.262908D-01
  0.129300D+01 -0.243845D-01
  0.511800D+00 -0.924934D-01
  0.178700D+00 -0.339683D+00
  0.246240D-01  0.345111D+00
  0.112530D-01  0.752750D+00
   s    10 1.00
  0.114200D+05  0.523000D-03
  0.171200D+04  0.404500D-02
  0.389300D+03  0.207750D-01
  0.110000D+03  0.807269D-01
  0.355700D+02  0.233074D+00
  0.125400D+02  0.433501D+00
  0.464400D+01  0.347472D+00
  0.129300D+01  0.412620D-01
  0.511800D+00 -0.850799D-02
  0.178700D+00  0.238400D-02
   s    10 1.00
  0.114200D+05 -0.115000D-03
  0.171200D+04 -0.895000D-03
  0.389300D+03 -0.462400D-02
  0.110000D+03 -0.185280D-01
  0.355700D+02 -0.573390D-01
  0.125400D+02 -0.132076D+00
  0.464400D+01 -0.172510D+00
  0.129300D+01  0.151814D+00
  0.511800D+00  0.599944D+00
  0.178700D+00  0.387462D+00
   s     1 1.00
  0.129300D+01  0.100000D+01
   s     1 1.00
  0.178700D+00  0.100000D+01
   p     5 1.00
  0.266300D+02  0.146700D-01
  0.594800D+01  0.917640D-01
  0.174200D+01  0.298683D+00
  0.555000D+00  0.498487D+00
  0.172500D+00  0.337023D+00
   p     1 1.00
  0.174200D+01  0.100000D+01
   p     1 1.00
  0.555000D+00  0.100000D+01
   d     1 1.00
  0.165400D+01  0.100000D+01
   d     1 1.00
  0.469000D+00  0.100000D+01
   f     1 1.00
  0.109300D+01  0.100000D+01
  
  2  0
   s    10 1.00
  0.823600D+04  0.531000D-03
  0.123500D+04  0.410800D-02
  0.280800D+03  0.210870D-01
  0.792700D+02  0.818530D-01
  0.255900D+02  0.234817D+00
  0.899700D+01  0.434401D+00
  0.331900D+01  0.346129D+00
  0.905900D+00  0.393780D-01
  0.364300D+00 -0.898300D-02
  0.128500D+00  0.238500D-02
   s    10 1.00
  0.823600D+04 -0.113000D-03
  0.123500D+04 -0.878000D-03
  0.280800D+03 -0.454000D-02
  0.792700D+02 -0.181330D-01
  0.255900D+02 -0.557600D-01
  0.899700D+01 -0.126895D+00
  0.331900D+01 -0.170352D+00
  0.905900D+00  0.140382D+00
  0.364300D+00  0.598684D+00
  0.128500D+00  0.395389D+00
   s     1 1.00
  0.905900D+00  0.100000D+01
   s     1 1.00
  0.364300D+00  0.100000D+01
   p     5 1.00
  0.187100D+02  0.140310D-01
  0.413300D+01  0.868660D-01
  0.120000D+01  0.290216D+00
  0.382700D+00  0.501008D+00
  0.120900D+00  0.343406D+00
   p     1 1.00
  0.382700D+00  0.100000D+01
   p     1 1.00
  0.120900D+00  0.100000D+01
   d     1 1.00
  0.109700D+01  0.100000D+01
   d     1 1.00
  0.318000D+00  0.100000D+01
   f     1 1.00
  0.761000D+00  0.100000D+01
  
  3  0
   s    10 1.00
  0.823600D+04  0.531000D-03
  0.123500D+04  0.410800D-02
  0.280800D+03  0.210870D-01
  0.792700D+02  0.818530D-01
  0.255900D+02  0.234817D+00
  0.899700D+01  0.434401D+00
  0.331900D+01  0.346129D+00
  0.905900D+00  0.393780D-01
  0.364300D+00 -0.898300D-02
  0.128500D+00  0.238500D-02
   s    10 1.00
  0.823600D+04 -0.113000D-03
  0.123500D+04 -0.878000D-03
  0.280800D+03 -0.454000D-02
  0.792700D+02 -0.181330D-01
  0.255900D+02 -0.557600D-01
  0.899700D+01 -0.126895D+00
  0.331900D+01 -0.170352D+00
  0.905900D+00  0.140382D+00
  0.364300D+00  0.598684D+00
  0.128500D+00  0.395389D+00
   s     1 1.00
  0.905900D+00  0.100000D+01
   s     1 1.00
  0.364300D+00  0.100000D+01
   p     5 1.00
  0.187100D+02  0.140310D-01
  0.413300D+01  0.868660D-01
  0.120000D+01  0.290216D+00
  0.382700D+00  0.501008D+00
  0.120900D+00  0.343406D+00
   p     1 1.00
  0.382700D+00  0.100000D+01
   p     1 1.00
  0.120900D+00  0.100000D+01
   d     1 1.00
  0.109700D+01  0.100000D+01
   d     1 1.00
  0.318000D+00  0.100000D+01
   f     1 1.00
  0.761000D+00  0.100000D+01
  
  4  0
   s    10 1.00
  0.823600D+04  0.531000D-03
  0.123500D+04  0.410800D-02
  0.280800D+03  0.210870D-01
  0.792700D+02  0.818530D-01
  0.255900D+02  0.234817D+00
  0.899700D+01  0.434401D+00
  0.331900D+01  0.346129D+00
  0.905900D+00  0.393780D-01
  0.364300D+00 -0.898300D-02
  0.128500D+00  0.238500D-02
   s    10 1.00
  0.823600D+04 -0.113000D-03
  0.123500D+04 -0.878000D-03
  0.280800D+03 -0.454000D-02
  0.792700D+02 -0.181330D-01
  0.255900D+02 -0.557600D-01
  0.899700D+01 -0.126895D+00
  0.331900D+01 -0.170352D+00
  0.905900D+00  0.140382D+00
  0.364300D+00  0.598684D+00
  0.128500D+00  0.395389D+00
   s     1 1.00
  0.905900D+00  0.100000D+01
   s     1 1.00
  0.364300D+00  0.100000D+01
   p     5 1.00
  0.187100D+02  0.140310D-01
  0.413300D+01  0.868660D-01
  0.120000D+01  0.290216D+00
  0.382700D+00  0.501008D+00
  0.120900D+00  0.343406D+00
   p     1 1.00
  0.382700D+00  0.100000D+01
   p     1 1.00
  0.120900D+00  0.100000D+01
   d     1 1.00
  0.109700D+01  0.100000D+01
   d     1 1.00
  0.318000D+00  0.100000D+01
   f     1 1.00
  0.761000D+00  0.100000D+01
  
  5  0
   s    10 1.00
  0.823600D+04  0.531000D-03
  0.123500D+04  0.410800D-02
  0.280800D+03  0.210870D-01
  0.792700D+02  0.818530D-01
  0.255900D+02  0.234817D+00
  0.899700D+01  0.434401D+00
  0.331900D+01  0.346129D+00
  0.905900D+00  0.393780D-01
  0.364300D+00 -0.898300D-02
  0.128500D+00  0.238500D-02
   s    10 1.00
  0.823600D+04 -0.113000D-03
  0.123500D+04 -0.878000D-03
  0.280800D+03 -0.454000D-02
  0.792700D+02 -0.181330D-01
  0.255900D+02 -0.557600D-01
  0.899700D+01 -0.126895D+00
  0.331900D+01 -0.170352D+00
  0.905900D+00  0.140382D+00
  0.364300D+00  0.598684D+00
  0.128500D+00  0.395389D+00
   s     1 1.00
  0.905900D+00  0.100000D+01
   s     1 1.00
  0.364300D+00  0.100000D+01
   p     5 1.00
  0.187100D+02  0.140310D-01
  0.413300D+01  0.868660D-01
  0.120000D+01  0.290216D+00
  0.382700D+00  0.501008D+00
  0.120900D+00  0.343406D+00
   p     1 1.00
  0.382700D+00  0.100000D+01
   p     1 1.00
  0.120900D+00  0.100000D+01
   d     1 1.00
  0.109700D+01  0.100000D+01
   d     1 1.00
  0.318000D+00  0.100000D+01
   f     1 1.00
  0.761000D+00  0.100000D+01
  
  6  0
   s    10 1.00
  0.823600D+04  0.531000D-03
  0.123500D+04  0.410800D-02
  0.280800D+03  0.210870D-01
  0.792700D+02  0.818530D-01
  0.255900D+02  0.234817D+00
  0.899700D+01  0.434401D+00
  0.331900D+01  0.346129D+00
  0.905900D+00  0.393780D-01
  0.364300D+00 -0.898300D-02
  0.128500D+00  0.238500D-02
   s    10 1.00
  0.823600D+04 -0.113000D-03
  0.123500D+04 -0.878000D-03
  0.280800D+03 -0.454000D-02
  0.792700D+02 -0.181330D-01
  0.255900D+02 -0.557600D-01
  0.899700D+01 -0.126895D+00
  0.331900D+01 -0.170352D+00
  0.905900D+00  0.140382D+00
  0.364300D+00  0.598684D+00
  0.128500D+00  0.395389D+00
   s     1 1.00
  0.905900D+00  0.100000D+01
   s     1 1.00
  0.364300D+00  0.100000D+01
   p     5 1.00
  0.187100D+02  0.140310D-01
  0.413300D+01  0.868660D-01
  0.120000D+01  0.290216D+00
  0.382700D+00  0.501008D+00
  0.120900D+00  0.343406D+00
   p     1 1.00
  0.382700D+00  0.100000D+01
   p     1 1.00
  0.120900D+00  0.100000D+01
   d     1 1.00
  0.109700D+01  0.100000D+01
   d     1 1.00
  0.318000D+00  0.100000D+01
   f     1 1.00
  0.761000D+00  0.100000D+01
  
  7  0
   s    10 1.00
  0.823600D+04  0.531000D-03
  0.123500D+04  0.410800D-02
  0.280800D+03  0.210870D-01
  0.792700D+02  0.818530D-01
  0.255900D+02  0.234817D+00
  0.899700D+01  0.434401D+00
  0.331900D+01  0.346129D+00
  0.905900D+00  0.393780D-01
  0.364300D+00 -0.898300D-02
  0.128500D+00  0.238500D-02
   s    10 1.00
  0.823600D+04 -0.113000D-03
  0.123500D+04 -0.878000D-03
  0.280800D+03 -0.454000D-02
  0.792700D+02 -0.181330D-01
  0.255900D+02 -0.557600D-01
  0.899700D+01 -0.126895D+00
  0.331900D+01 -0.170352D+00
  0.905900D+00  0.140382D+00
  0.364300D+00  0.598684D+00
  0.128500D+00  0.395389D+00
   s     1 1.00
  0.905900D+00  0.100000D+01
   s     1 1.00
  0.364300D+00  0.100000D+01
   p     5 1.00
  0.187100D+02  0.140310D-01
  0.413300D+01  0.868660D-01
  0.120000D+01  0.290216D+00
  0.382700D+00  0.501008D+00
  0.120900D+00  0.343406D+00
   p     1 1.00
  0.382700D+00  0.100000D+01
   p     1 1.00
  0.120900D+00  0.100000D+01
   d     1 1.00
  0.109700D+01  0.100000D+01
   d     1 1.00
  0.318000D+00  0.100000D+01
   f     1 1.00
  0.761000D+00  0.100000D+01
  
  8  0
   s     4 1.00
  0.130100D+02  0.196850D-01
  0.196200D+01  0.137977D+00
  0.444600D+00  0.478148D+00
  0.122000D+00  0.501240D+00
   s     1 1.00
  0.122000D+00  0.100000D+01
   p     1 1.00
  0.727000D+00  0.100000D+01
  
  9  0
   s     4 1.00
  0.130100D+02  0.196850D-01
  0.196200D+01  0.137977D+00
  0.444600D+00  0.478148D+00
  0.122000D+00  0.501240D+00
   s     1 1.00
  0.122000D+00  0.100000D+01
   p     1 1.00
  0.727000D+00  0.100000D+01
  
 10  0
   s     4 1.00
  0.130100D+02  0.196850D-01
  0.196200D+01  0.137977D+00
  0.444600D+00  0.478148D+00
  0.122000D+00  0.501240D+00
   s     1 1.00
  0.122000D+00  0.100000D+01
   p     1 1.00
  0.727000D+00  0.100000D+01
  
 11  0
   s     4 1.00
  0.130100D+02  0.196850D-01
  0.196200D+01  0.137977D+00
  0.444600D+00  0.478148D+00
  0.122000D+00  0.501240D+00
   s     1 1.00
  0.122000D+00  0.100000D+01
   p     1 1.00
  0.727000D+00  0.100000D+01
  
 12  0
   s     4 1.00
  0.130100D+02  0.196850D-01
  0.196200D+01  0.137977D+00
  0.444600D+00  0.478148D+00
  0.122000D+00  0.501240D+00
   s     1 1.00
  0.122000D+00  0.100000D+01
   p     1 1.00
  0.727000D+00  0.100000D+01
  
 13  0
   s     4 1.00
  0.130100D+02  0.196850D-01
  0.196200D+01  0.137977D+00
  0.444600D+00  0.478148D+00
  0.122000D+00  0.501240D+00
   s     1 1.00
  0.122000D+00  0.100000D+01
   p     1 1.00
  0.727000D+00  0.100000D+01
  
 14  0
   s     4 1.00
  0.130100D+02  0.196850D-01
  0.196200D+01  0.137977D+00
  0.444600D+00  0.478148D+00
  0.122000D+00  0.501240D+00
   s     1 1.00
  0.122000D+00  0.100000D+01
   p     1 1.00
  0.727000D+00  0.100000D+01
  
[MO]
 Sym= __1_A__
 Ene=  0.000000000000000E+000
 Spin= Alpha
 Occup=    2.00000000000000     
                     1  9.618737873562274E-005
                     2  0.998372849215434     
                     3 -3.760434143643954E-003
                     4  1.845274446960806E-003
                     5  6.542262259337386E-003
                     6  2.748470467799863E-003
                     7  5.643827207779653E-003
                     8 -3.413320389127441E-011
                     9 -7.180682352048708E-004
                    10 -7.343502120844169E-004
                    11  1.794660447559705E-010
                    12 -2.458055418156229E-003
                    13 -1.970699163496688E-003
                    14 -3.386300079444772E-010
                    15 -2.608975393275501E-005
                    16  5.728439437018764E-011
                    17  1.034910031604773E-011
                    18 -1.480681774248756E-004
                    19 -6.218381184540096E-005
                    20  1.037141171636939E-004
                    21 -4.527810795481786E-011
                    22 -2.454496271586616E-010
                    23 -1.827562869023524E-004
                    24  4.820292021134897E-004
                    25 -2.733930812561929E-010
                    26 -3.534002428535148E-006
                    27 -4.409624472590087E-005
                    28  1.543982513366086E-010
                    29 -2.328709293966644E-010
                    30  3.337994958559898E-005
                    31 -1.017586143139201E-004
                    32 -3.107054360223301E-004
                    33  3.648361351739286E-005
                    34  3.162277976360431E-004
                    35 -9.736345740403099E-005
                    36 -5.384434467597702E-005
                    37 -2.025545521912643E-003
                    38 -1.857683377675284E-010
                    39  3.529418435417435E-004
                    40  1.200661051897079E-004
                    41  2.325593055203472E-010
                    42 -2.068381972955585E-003
                    43  4.825683101974924E-003
                    44 -1.016649533158548E-010
                    45  1.173867511337585E-005
                    46 -8.000556760370024E-012
                    47 -2.818143298228802E-011
                    48 -1.032196542162965E-004
                    49  1.239326433796911E-005
                    50 -1.894280239215295E-004
                    51  4.536207426457963E-011
                    52 -3.043139250774746E-010
                    53  5.196901163544472E-006
                    54  7.604566205678653E-004
                    55  7.107969128584734E-011
                    56 -3.560055524813425E-006
                    57 -7.896018886102985E-005
                    58 -1.693514289225532E-010
                    59 -2.737094095016717E-011
                    60  1.794156140254532E-005
                    61 -1.324636781680155E-004
                    62 -5.378229116902402E-004
                    63 -2.027528193387216E-003
                    64 -9.430797024866741E-005
                    65  2.215180939882139E-003
                    66 -3.511610006557896E-004
                    67 -4.221374758293770E-006
                    68 -9.880326444025753E-011
                    69  3.726806623057055E-004
                    70  8.822572992105989E-004
                    71  4.457414082087403E-011
                    72 -1.785105888486548E-003
                    73  6.489404722081935E-004
                    74  3.607849435988070E-011
                    75 -4.677637133803378E-005
                    76 -7.875770639053246E-012
                    77  1.521875054824039E-011
                    78 -5.119964563756664E-005
                    79 -2.391884961777395E-005
                    80 -1.347945537856906E-004
                    81  7.234239837441235E-011
                    82 -4.411245238956874E-011
                    83  2.437856566999952E-005
                    84 -1.308262847923512E-005
                    85  5.107145820907499E-011
                    86  9.188780983924755E-006
                    87 -4.592804117937109E-005
                    88 -7.510129174378305E-011
                    89 -1.514086726457002E-011
                    90 -3.063252484504148E-005
                    91 -1.562471903075324E-004
                    92 -1.752696730840068E-004
                    93 -5.408876071322826E-004
                    94  1.512619964449955E-004
                    95 -5.764819607830601E-005
                    96  9.001802919332173E-005
                    97 -9.642503642014694E-005
                    98 -1.002936756810576E-010
                    99  3.366677457049683E-004
                   100  3.728823827438433E-004
                   101  1.889287564051278E-011
                   102  6.200529286341891E-004
                   103 -1.699978488017482E-003
                   104 -2.756682085104338E-011
                   105 -1.407433503908576E-005
                   106  1.262142464479554E-012
                   107  1.663110570309366E-011
                   108 -3.657692317368698E-005
                   109 -1.223170085964397E-005
                   110  7.762164108054123E-005
                   111 -4.161375652337969E-011
                   112 -5.198721318186060E-011
                   113 -1.558131892870970E-004
                   114  1.046294488763137E-004
                   115  5.482414887314730E-011
                   116 -1.788388522858385E-005
                   117 -2.172136013750370E-005
                   118 -7.459691293403904E-011
                   119  4.859337435435612E-012
                   120 -9.828750852573339E-006
                   121 -4.175630151405441E-005
                   122 -2.420314307274123E-004
                   123 -6.525936553361927E-004
                   124  1.721314561455126E-004
                   125  2.900266265545092E-004
                   126 -3.449700601409208E-005
                   127 -2.369517295714989E-004
                   128 -1.534986188116996E-011
                   129  2.344934671908406E-004
                   130  6.475394837823086E-004
                   131 -1.039479078219465E-011
                   132  4.234255703691495E-004
                   133  1.932172911306965E-003
                   134  5.135849015505699E-011
                   135  1.503643328046243E-005
                   136  9.293110814961654E-012
                   137  3.670972767040965E-010
                   138  4.869869988475990E-005
                   139 -3.590885570641568E-006
                   140  2.047597768124289E-004
                   141  2.333553693122525E-011
                   142 -2.066420934184633E-010
                   143  3.952687696601470E-004
                   144  2.150972010851823E-004
                   145 -3.096120704863170E-012
                   146 -1.209313668541430E-005
                   147 -6.391706682806648E-005
                   148  2.659178074312440E-011
                   149  1.224894092200800E-011
                   150 -1.199802407343874E-005
                   151 -5.553547217398228E-005
                   152 -1.325425497070447E-004
                   153 -4.076632669707505E-004
                   154  5.539407137175237E-005
                   155  1.966823542006382E-004
                   156  7.664813383324466E-006
                   157 -1.628360486872266E-005
                   158 -3.694049343727020E-011
                   159 -3.267284387081739E-006
                   160  4.706135762409914E-005
                   161  4.938631017336816E-012
                   162  7.356343514841620E-004
                   163 -3.614554206920999E-004
                   164  9.955831802498334E-011
                   165  2.026816782869239E-006
                   166 -1.103851682031299E-011
                   167  3.916247951091353E-010
                   168  4.468996224208568E-006
                   169  1.261650510273405E-005
                   170  1.066316516070149E-004
                   171 -3.013397630802924E-011
                   172 -2.539194691710705E-010
                   173  4.752310191166042E-005
                   174  3.812572666732612E-005
                   175  1.460011349217573E-012
                   176  4.216614613849782E-006
                   177 -1.399917777470106E-005
                   178  2.586335045431960E-011
                   179 -1.518264489214303E-011
                   180 -2.506164806472168E-005
                   181 -3.020072794467638E-005
                   182 -1.359244703582069E-004
                   183 -4.009653704626136E-004
                   184  3.105120424856568E-005
                   185  2.089620505235614E-004
                   186 -4.577850266509814E-005
                   187 -6.031633459532146E-005
                   188  4.726766969051149E-011
                   189  2.574123880269550E-004
                   190  1.193228270212893E-004
                   191 -2.487662431579377E-011
                   192  1.303072172828921E-003
                   193 -3.102500386077228E-004
                   194 -1.399660676209769E-011
                   195  8.848762543362844E-007
                   196  2.860251400525988E-013
                   197  3.350822809213772E-011
                   198 -2.592165681436766E-006
                   199  4.163431817177141E-006
                   200 -8.078211468321432E-006
                   201 -7.345731254456581E-012
                   202  8.450821769708918E-011
                   203 -6.676231645239122E-005
                   204 -1.978162766349751E-004
                   205 -4.728055021050922E-011
                   206 -9.471755231241272E-006
                   207 -3.837010874680532E-006
                   208 -3.258341023745634E-011
                   209  3.308093463877513E-012
                   210  7.822197018487749E-006
                   211 -3.921477537774788E-006
                   212 -2.396579785641441E-005
                   213  1.076912858712139E-004
                   214  1.979732327222058E-005
                   215  2.692424467002040E-005
                   216 -7.680239524567653E-013
                   217 -1.145138621651088E-003
                   218 -4.627886940332661E-004
                   219 -2.126137998235243E-004
                   220  4.169402045427684E-005
                   221 -2.242806533682434E-011
                   222 -1.677403289834222E-004
                   223 -6.335932523226914E-004
                   224  2.385056196832172E-005
                   225 -5.899553546052871E-005
                   226  1.156112092352478E-011
                   227  8.623234064302689E-005
                   228 -6.423224495743045E-004
                   229 -4.453004470016070E-005
                   230 -1.511987397313742E-005
                   231  8.407292392530980E-012
                   232  4.078193189285263E-005
                   233 -4.660907567942553E-004
                   234  1.439078826414424E-005
                   235 -4.102524225453284E-006
                   236  1.200852431289749E-011
                   237  3.470231517044693E-005
                   238 -3.575627706746475E-004
                   239 -9.341261571001452E-006
                   240 -3.032216872224193E-006
                   241  1.562596572473933E-011
                   242 -7.052240043136608E-005
                   243  9.032807947418760E-005
                   244 -2.228771874691814E-008
                   245  2.962295081795253E-005
                   246 -3.798082739971438E-011
 Sym= __2_A__
 Ene=  0.000000000000000E+000
 Spin= Alpha
 Occup=    2.00000000000000     
                     1  4.662271834878561E-005
                     2  3.247250672456871E-004
                     3 -3.036195508497425E-003
                     4 -1.161016762199139E-004
                     5 -1.344491168251085E-003
                     6  4.137088269338907E-004
                     7 -2.879187155552133E-003
                     8  1.043458693561171E-010
                     9  2.121420621611843E-005
                    10  1.066031850976812E-004
                    11 -2.833515009523624E-011
                    12  3.789944119234837E-005
                    13  2.883075592665804E-004
                    14  9.323183304876783E-011
                    15 -2.530869489012762E-005
                    16 -2.133084604499057E-012
                    17 -9.558493232093606E-012
                    18  4.776771904866500E-005
                    19 -2.039094778427900E-005
                    20  1.188043145520865E-004
                    21  6.391625299665107E-012
                    22  1.598037928625518E-010
                    23 -1.059850730948725E-004
                    24  1.508500316778626E-004
                    25  1.285549947642360E-010
                    26  1.783125530107037E-005
                    27 -9.256756844807775E-005
                    28 -1.225710695497016E-010
                    29  1.708020889194420E-010
                    30  6.543766459653849E-005
                    31 -1.452986517112177E-004
                    32  -1.00088144518058     
                    33 -9.054575772404764E-003
                    34 -2.767732602562103E-003
                    35  8.074324467109848E-003
                    36  2.142070877059066E-004
                    37  3.381888089479553E-003
                    38  2.115576924747704E-011
                    39  1.410278660977732E-004
                    40 -2.238101175166309E-004
                    41 -3.369715722483833E-011
                    42  1.616633250178329E-004
                    43 -4.050616869069087E-003
                    44  4.395903481683917E-010
                    45  5.244321463943221E-004
                    46 -3.698311324163032E-011
                    47  1.661002841945452E-011
                    48  1.979143119005099E-004
                    49 -3.138501981199316E-005
                    50 -5.538985669276972E-004
                    51 -6.397922971664806E-011
                    52  3.484319629043087E-010
                    53  6.593769693326582E-004
                    54  4.297397943316661E-004
                    55 -2.067704259915410E-011
                    56 -1.432032584131256E-005
                    57 -9.907040125976647E-005
                    58  7.566745347302898E-011
                    59  2.330284779362019E-011
                    60  2.257571102472589E-005
                    61 -3.786074719510917E-004
                    62 -1.273395066976154E-002
                    63  2.066020370028616E-003
                    64  2.323574549998307E-004
                    65 -2.693301209964603E-003
                    66 -9.249069942404620E-006
                    67 -1.633231563174907E-004
                    68  1.567706586250858E-010
                    69 -5.075493947810606E-004
                    70 -1.609950989762440E-004
                    71 -2.401935438067424E-010
                    72  2.094363205361185E-003
                    73 -2.607113087896557E-004
                    74 -5.209244359177504E-010
                    75 -3.507280438164238E-005
                    76  2.472008822419232E-011
                    77  8.061867121019022E-012
                    78  1.060867926707423E-005
                    79 -4.178645596345748E-006
                    80  4.275148043288119E-004
                    81 -2.523016480812689E-010
                    82 -1.694941296381487E-010
                    83  6.668590605159988E-004
                    84  2.623330416912843E-004
                    85 -3.528308044470496E-011
                    86 -2.957810896074864E-005
                    87  5.848465716725531E-005
                    88  3.321750483928392E-011
                    89 -2.362236673775500E-011
                    90 -4.749218259886857E-005
                    91 -1.478375423246772E-004
                    92 -1.565250716821257E-002
                    93  2.144554703276296E-003
                    94  2.997867376190868E-004
                    95 -3.183058802263767E-003
                    96 -2.563294949034170E-004
                    97 -2.728106517880529E-004
                    98  1.579755438331835E-010
                    99  9.403537766773844E-004
                   100  9.264189671599726E-007
                   101 -2.827954166839291E-010
                   102 -1.693821112238939E-003
                   103  2.956806009129795E-005
                   104 -4.937747614903956E-010
                   105 -2.323025880390414E-005
                   106 -1.618170153941690E-011
                   107  1.430988223370405E-011
                   108  1.085334063482671E-005
                   109 -2.703554085739527E-006
                   110  4.184001476936880E-004
                   111  2.298877462817549E-010
                   112 -2.420336411808807E-010
                   113  3.923441259179576E-004
                   114 -2.400784093973670E-004
                   115 -3.660528662904533E-011
                   116  3.169458201103242E-005
                   117  7.361430721934509E-005
                   118  4.322774545760142E-011
                   119  4.142892792264552E-011
                   120  2.134450148802651E-006
                   121 -1.345842003801790E-004
                   122  5.906614596589200E-005
                   123  6.407166126404847E-004
                   124 -2.296614947452830E-004
                   125  1.343912175188727E-004
                   126 -2.749321201190567E-006
                   127  4.330187039993150E-004
                   128 -2.585275917750375E-010
                   129  7.861575513247058E-005
                   130 -6.256219914466824E-004
                   131  6.837011986559611E-010
                   132 -3.701566090884054E-004
                   133 -9.305450915438113E-004
                   134  9.103761951017568E-010
                   135 -1.836222966433383E-005
                   136 -6.331129900245089E-011
                   137  3.807667802026381E-011
                   138 -2.190545832063200E-006
                   139 -4.462407770627725E-005
                   140 -1.287767044061613E-004
                   141  8.225942657195267E-010
                   142 -1.179155199139187E-010
                   143 -2.585064715197632E-004
                   144  1.041329398025973E-004
                   145  1.391491511312352E-010
                   146 -9.115144303187633E-006
                   147  3.639514787434728E-005
                   148  1.036343856395520E-010
                   149  9.550681933154982E-011
                   150  4.328816879952242E-005
                   151 -3.782813754047822E-005
                   152 -1.637579592141838E-004
                   153  5.993216250222053E-004
                   154 -2.288429240633404E-004
                   155  4.809907826912294E-005
                   156  4.352082216042869E-005
                   157  4.828545944843932E-004
                   158 -2.281866998225403E-010
                   159 -1.342715981411945E-004
                   160 -5.508940853431657E-004