[Molden Format]
[Atoms] AU
  N     1    7    -0.0056078000   -4.2818552200    0.0000000100        
  C     2    6     0.1023880000   -1.7452831600    0.0000000000        
  C     3    6    -2.2360633200   -0.3803470300    0.0000000200        
  C     4    6     2.3914369100   -0.2937808000   -0.0000000300        
  C     5    6    -2.2500272700    2.2016241100   -0.0000000100        
  C     6    6     2.3278224000    2.2854989300    0.0000000000        
  C     7    6     0.0186025300    3.5636975500    0.0000000000        
  H     8    1    -3.9506348300   -7.2105341300    0.0000000200        
  H     9    1     1.8026092300   -5.0070519500    0.0000000000        
  H    10    1    -3.9595274700   -1.4427187200    0.0000000100        
  H    11    1     4.1659200800   -1.2794669300   -0.0000000300        
  H    12    1    -4.0138949200    3.2050827200   -0.0000000400        
  H    13    1     4.0574247600    3.3470683800    0.0000000300        
  H    14    1    -0.0176804700    5.5913906500    0.0000000100        
[5D]
[7F]
[GTO]
  1  0
   s    12 1.00
  0.114200D+05  0.172695D-04
  0.171200D+04  0.134411D-03
  0.389300D+03  0.694561D-03
  0.110000D+03  0.278531D-02
  0.355700D+02  0.863457D-02
  0.125400D+02  0.199805D-01
  0.464400D+01  0.262908D-01
  0.129300D+01 -0.243845D-01
  0.511800D+00 -0.924934D-01
  0.178700D+00 -0.339683D+00
  0.246240D-01  0.345111D+00
  0.112530D-01  0.752750D+00
   s    10 1.00
  0.114200D+05  0.523000D-03
  0.171200D+04  0.404500D-02
  0.389300D+03  0.207750D-01
  0.110000D+03  0.807269D-01
  0.355700D+02  0.233074D+00
  0.125400D+02  0.433501D+00
  0.464400D+01  0.347472D+00
  0.129300D+01  0.412620D-01
  0.511800D+00 -0.850799D-02
  0.178700D+00  0.238400D-02
   s    10 1.00
  0.114200D+05 -0.115000D-03
  0.171200D+04 -0.895000D-03
  0.389300D+03 -0.462400D-02
  0.110000D+03 -0.185280D-01
  0.355700D+02 -0.573390D-01
  0.125400D+02 -0.132076D+00
  0.464400D+01 -0.172510D+00
  0.129300D+01  0.151814D+00
  0.511800D+00  0.599944D+00
  0.178700D+00  0.387462D+00
   s     1 1.00
  0.129300D+01  0.100000D+01
   s     1 1.00
  0.178700D+00  0.100000D+01
   p     5 1.00
  0.266300D+02  0.146700D-01
  0.594800D+01  0.917640D-01
  0.174200D+01  0.298683D+00
  0.555000D+00  0.498487D+00
  0.172500D+00  0.337023D+00
   p     1 1.00
  0.174200D+01  0.100000D+01
   p     1 1.00
  0.555000D+00  0.100000D+01
   d     1 1.00
  0.165400D+01  0.100000D+01
   d     1 1.00
  0.469000D+00  0.100000D+01
   f     1 1.00
  0.109300D+01  0.100000D+01
  
  2  0
   s    10 1.00
  0.823600D+04  0.531000D-03
  0.123500D+04  0.410800D-02
  0.280800D+03  0.210870D-01
  0.792700D+02  0.818530D-01
  0.255900D+02  0.234817D+00
  0.899700D+01  0.434401D+00
  0.331900D+01  0.346129D+00
  0.905900D+00  0.393780D-01
  0.364300D+00 -0.898300D-02
  0.128500D+00  0.238500D-02
   s    10 1.00
  0.823600D+04 -0.113000D-03
  0.123500D+04 -0.878000D-03
  0.280800D+03 -0.454000D-02
  0.792700D+02 -0.181330D-01
  0.255900D+02 -0.557600D-01
  0.899700D+01 -0.126895D+00
  0.331900D+01 -0.170352D+00
  0.905900D+00  0.140382D+00
  0.364300D+00  0.598684D+00
  0.128500D+00  0.395389D+00
   s     1 1.00
  0.905900D+00  0.100000D+01
   s     1 1.00
  0.364300D+00  0.100000D+01
   p     5 1.00
  0.187100D+02  0.140310D-01
  0.413300D+01  0.868660D-01
  0.120000D+01  0.290216D+00
  0.382700D+00  0.501008D+00
  0.120900D+00  0.343406D+00
   p     1 1.00
  0.382700D+00  0.100000D+01
   p     1 1.00
  0.120900D+00  0.100000D+01
   d     1 1.00
  0.109700D+01  0.100000D+01
   d     1 1.00
  0.318000D+00  0.100000D+01
   f     1 1.00
  0.761000D+00  0.100000D+01
  
  3  0
   s    10 1.00
  0.823600D+04  0.531000D-03
  0.123500D+04  0.410800D-02
  0.280800D+03  0.210870D-01
  0.792700D+02  0.818530D-01
  0.255900D+02  0.234817D+00
  0.899700D+01  0.434401D+00
  0.331900D+01  0.346129D+00
  0.905900D+00  0.393780D-01
  0.364300D+00 -0.898300D-02
  0.128500D+00  0.238500D-02
   s    10 1.00
  0.823600D+04 -0.113000D-03
  0.123500D+04 -0.878000D-03
  0.280800D+03 -0.454000D-02
  0.792700D+02 -0.181330D-01
  0.255900D+02 -0.557600D-01
  0.899700D+01 -0.126895D+00
  0.331900D+01 -0.170352D+00
  0.905900D+00  0.140382D+00
  0.364300D+00  0.598684D+00
  0.128500D+00  0.395389D+00
   s     1 1.00
  0.905900D+00  0.100000D+01
   s     1 1.00
  0.364300D+00  0.100000D+01
   p     5 1.00
  0.187100D+02  0.140310D-01
  0.413300D+01  0.868660D-01
  0.120000D+01  0.290216D+00
  0.382700D+00  0.501008D+00
  0.120900D+00  0.343406D+00
   p     1 1.00
  0.382700D+00  0.100000D+01
   p     1 1.00
  0.120900D+00  0.100000D+01
   d     1 1.00
  0.109700D+01  0.100000D+01
   d     1 1.00
  0.318000D+00  0.100000D+01
   f     1 1.00
  0.761000D+00  0.100000D+01
  
  4  0
   s    10 1.00
  0.823600D+04  0.531000D-03
  0.123500D+04  0.410800D-02
  0.280800D+03  0.210870D-01
  0.792700D+02  0.818530D-01
  0.255900D+02  0.234817D+00
  0.899700D+01  0.434401D+00
  0.331900D+01  0.346129D+00
  0.905900D+00  0.393780D-01
  0.364300D+00 -0.898300D-02
  0.128500D+00  0.238500D-02
   s    10 1.00
  0.823600D+04 -0.113000D-03
  0.123500D+04 -0.878000D-03
  0.280800D+03 -0.454000D-02
  0.792700D+02 -0.181330D-01
  0.255900D+02 -0.557600D-01
  0.899700D+01 -0.126895D+00
  0.331900D+01 -0.170352D+00
  0.905900D+00  0.140382D+00
  0.364300D+00  0.598684D+00
  0.128500D+00  0.395389D+00
   s     1 1.00
  0.905900D+00  0.100000D+01
   s     1 1.00
  0.364300D+00  0.100000D+01
   p     5 1.00
  0.187100D+02  0.140310D-01
  0.413300D+01  0.868660D-01
  0.120000D+01  0.290216D+00
  0.382700D+00  0.501008D+00
  0.120900D+00  0.343406D+00
   p     1 1.00
  0.382700D+00  0.100000D+01
   p     1 1.00
  0.120900D+00  0.100000D+01
   d     1 1.00
  0.109700D+01  0.100000D+01
   d     1 1.00
  0.318000D+00  0.100000D+01
   f     1 1.00
  0.761000D+00  0.100000D+01
  
  5  0
   s    10 1.00
  0.823600D+04  0.531000D-03
  0.123500D+04  0.410800D-02
  0.280800D+03  0.210870D-01
  0.792700D+02  0.818530D-01
  0.255900D+02  0.234817D+00
  0.899700D+01  0.434401D+00
  0.331900D+01  0.346129D+00
  0.905900D+00  0.393780D-01
  0.364300D+00 -0.898300D-02
  0.128500D+00  0.238500D-02
   s    10 1.00
  0.823600D+04 -0.113000D-03
  0.123500D+04 -0.878000D-03
  0.280800D+03 -0.454000D-02
  0.792700D+02 -0.181330D-01
  0.255900D+02 -0.557600D-01
  0.899700D+01 -0.126895D+00
  0.331900D+01 -0.170352D+00
  0.905900D+00  0.140382D+00
  0.364300D+00  0.598684D+00
  0.128500D+00  0.395389D+00
   s     1 1.00
  0.905900D+00  0.100000D+01
   s     1 1.00
  0.364300D+00  0.100000D+01
   p     5 1.00
  0.187100D+02  0.140310D-01
  0.413300D+01  0.868660D-01
  0.120000D+01  0.290216D+00
  0.382700D+00  0.501008D+00
  0.120900D+00  0.343406D+00
   p     1 1.00
  0.382700D+00  0.100000D+01
   p     1 1.00
  0.120900D+00  0.100000D+01
   d     1 1.00
  0.109700D+01  0.100000D+01
   d     1 1.00
  0.318000D+00  0.100000D+01
   f     1 1.00
  0.761000D+00  0.100000D+01
  
  6  0
   s    10 1.00
  0.823600D+04  0.531000D-03
  0.123500D+04  0.410800D-02
  0.280800D+03  0.210870D-01
  0.792700D+02  0.818530D-01
  0.255900D+02  0.234817D+00
  0.899700D+01  0.434401D+00
  0.331900D+01  0.346129D+00
  0.905900D+00  0.393780D-01
  0.364300D+00 -0.898300D-02
  0.128500D+00  0.238500D-02
   s    10 1.00
  0.823600D+04 -0.113000D-03
  0.123500D+04 -0.878000D-03
  0.280800D+03 -0.454000D-02
  0.792700D+02 -0.181330D-01
  0.255900D+02 -0.557600D-01
  0.899700D+01 -0.126895D+00
  0.331900D+01 -0.170352D+00
  0.905900D+00  0.140382D+00
  0.364300D+00  0.598684D+00
  0.128500D+00  0.395389D+00
   s     1 1.00
  0.905900D+00  0.100000D+01
   s     1 1.00
  0.364300D+00  0.100000D+01
   p     5 1.00
  0.187100D+02  0.140310D-01
  0.413300D+01  0.868660D-01
  0.120000D+01  0.290216D+00
  0.382700D+00  0.501008D+00
  0.120900D+00  0.343406D+00
   p     1 1.00
  0.382700D+00  0.100000D+01
   p     1 1.00
  0.120900D+00  0.100000D+01
   d     1 1.00
  0.109700D+01  0.100000D+01
   d     1 1.00
  0.318000D+00  0.100000D+01
   f     1 1.00
  0.761000D+00  0.100000D+01
  
  7  0
   s    10 1.00
  0.823600D+04  0.531000D-03
  0.123500D+04  0.410800D-02
  0.280800D+03  0.210870D-01
  0.792700D+02  0.818530D-01
  0.255900D+02  0.234817D+00
  0.899700D+01  0.434401D+00
  0.331900D+01  0.346129D+00
  0.905900D+00  0.393780D-01
  0.364300D+00 -0.898300D-02
  0.128500D+00  0.238500D-02
   s    10 1.00
  0.823600D+04 -0.113000D-03
  0.123500D+04 -0.878000D-03
  0.280800D+03 -0.454000D-02
  0.792700D+02 -0.181330D-01
  0.255900D+02 -0.557600D-01
  0.899700D+01 -0.126895D+00
  0.331900D+01 -0.170352D+00
  0.905900D+00  0.140382D+00
  0.364300D+00  0.598684D+00
  0.128500D+00  0.395389D+00
   s     1 1.00
  0.905900D+00  0.100000D+01
   s     1 1.00
  0.364300D+00  0.100000D+01
   p     5 1.00
  0.187100D+02  0.140310D-01
  0.413300D+01  0.868660D-01
  0.120000D+01  0.290216D+00
  0.382700D+00  0.501008D+00
  0.120900D+00  0.343406D+00
   p     1 1.00
  0.382700D+00  0.100000D+01
   p     1 1.00
  0.120900D+00  0.100000D+01
   d     1 1.00
  0.109700D+01  0.100000D+01
   d     1 1.00
  0.318000D+00  0.100000D+01
   f     1 1.00
  0.761000D+00  0.100000D+01
  
  8  0
   s     4 1.00
  0.130100D+02  0.196850D-01
  0.196200D+01  0.137977D+00
  0.444600D+00  0.478148D+00
  0.122000D+00  0.501240D+00
   s     1 1.00
  0.122000D+00  0.100000D+01
   p     1 1.00
  0.727000D+00  0.100000D+01
  
  9  0
   s     4 1.00
  0.130100D+02  0.196850D-01
  0.196200D+01  0.137977D+00
  0.444600D+00  0.478148D+00
  0.122000D+00  0.501240D+00
   s     1 1.00
  0.122000D+00  0.100000D+01
   p     1 1.00
  0.727000D+00  0.100000D+01
  
 10  0
   s     4 1.00
  0.130100D+02  0.196850D-01
  0.196200D+01  0.137977D+00
  0.444600D+00  0.478148D+00
  0.122000D+00  0.501240D+00
   s     1 1.00
  0.122000D+00  0.100000D+01
   p     1 1.00
  0.727000D+00  0.100000D+01
  
 11  0
   s     4 1.00
  0.130100D+02  0.196850D-01
  0.196200D+01  0.137977D+00
  0.444600D+00  0.478148D+00
  0.122000D+00  0.501240D+00
   s     1 1.00
  0.122000D+00  0.100000D+01
   p     1 1.00
  0.727000D+00  0.100000D+01
  
 12  0
   s     4 1.00
  0.130100D+02  0.196850D-01
  0.196200D+01  0.137977D+00
  0.444600D+00  0.478148D+00
  0.122000D+00  0.501240D+00
   s     1 1.00
  0.122000D+00  0.100000D+01
   p     1 1.00
  0.727000D+00  0.100000D+01
  
 13  0
   s     4 1.00
  0.130100D+02  0.196850D-01
  0.196200D+01  0.137977D+00
  0.444600D+00  0.478148D+00
  0.122000D+00  0.501240D+00
   s     1 1.00
  0.122000D+00  0.100000D+01
   p     1 1.00
  0.727000D+00  0.100000D+01
  
 14  0
   s     4 1.00
  0.130100D+02  0.196850D-01
  0.196200D+01  0.137977D+00
  0.444600D+00  0.478148D+00
  0.122000D+00  0.501240D+00
   s     1 1.00
  0.122000D+00  0.100000D+01
   p     1 1.00
  0.727000D+00  0.100000D+01
  
[MO]
 Sym= __1_a__
 Ene=  0.000000000000000E+000
 Spin= Alpha
 Occup=    2.00000000000000     
                     1  9.618737873559900E-005
                     2  0.998372849215434     
                     3 -3.760434143645020E-003
                     4  1.845274446960830E-003
                     5  6.542262259337480E-003
                     6  2.748470467799140E-003
                     7  5.643827207779030E-003
                     8 -3.413320389113480E-011
                     9 -7.180682352049070E-004
                    10 -7.343502120844250E-004
                    11  1.794660447559000E-010
                    12 -2.458055418156220E-003
                    13 -1.970699163496750E-003
                    14 -3.386300079444440E-010
                    15 -2.608975393273408E-005
                    16  5.728439437017990E-011
                    17  1.034910031604020E-011
                    18 -1.480681774248642E-004
                    19 -6.218381184541890E-005
                    20  1.037141171637540E-004
                    21 -4.527810795475980E-011
                    22 -2.454496271585510E-010
                    23 -1.827562869022532E-004
                    24  4.820292021133640E-004
                    25 -2.733930812559099E-010
                    26 -3.534002428525389E-006
                    27 -4.409624472588125E-005
                    28  1.543982513366512E-010
                    29 -2.328709293963600E-010
                    30  3.337994958558155E-005
                    31 -1.017586143139048E-004
                    32 -3.107054360180180E-004
                    33  3.648361351260550E-005
                    34  3.162277976360900E-004
                    35 -9.736345740370090E-005
                    36 -5.384434467925170E-005
                    37 -2.025545521913250E-003
                    38 -1.857683377674290E-010
                    39  3.529418435417960E-004
                    40  1.200661051895150E-004
                    41  2.325593055202600E-010
                    42 -2.068381972954730E-003
                    43  4.825683101974500E-003
                    44 -1.016649533158220E-010
                    45  1.173867511344391E-005
                    46 -8.000556760353490E-012
                    47 -2.818143298226400E-011
                    48 -1.032196542163680E-004
                    49  1.239326433788830E-005
                    50 -1.894280239213761E-004
                    51  4.536207426448700E-011
                    52 -3.043139250773300E-010
                    53  5.196901163393700E-006
                    54  7.604566205676870E-004
                    55  7.107969128579874E-011
                    56 -3.560055524783342E-006
                    57 -7.896018886101567E-005
                    58 -1.693514289224720E-010
                    59 -2.737094095009680E-011
                    60  1.794156140253939E-005
                    61 -1.324636781680908E-004
                    62 -5.378229116902690E-004
                    63 -2.027528193387770E-003
                    64 -9.430797024868440E-005
                    65  2.215180939882110E-003
                    66 -3.511610006544330E-004
                    67 -4.221374756676350E-006
                    68 -9.880326444025371E-011
                    69  3.726806623055250E-004
                    70  8.822572992102310E-004
                    71  4.457414082090510E-011
                    72 -1.785105888486020E-003
                    73  6.489404722075480E-004
                    74  3.607849435982040E-011
                    75 -4.677637133802148E-005
                    76 -7.875770639042771E-012
                    77  1.521875054823530E-011
                    78 -5.119964563763100E-005
                    79 -2.391884961782750E-005
                    80 -1.347945537857056E-004
                    81  7.234239837435780E-011
                    82 -4.411245238950470E-011
                    83  2.437856567001120E-005
                    84 -1.308262847917000E-005
                    85  5.107145820908441E-011
                    86  9.188780983921126E-006
                    87 -4.592804117937514E-005
                    88 -7.510129174377739E-011
                    89 -1.514086726454880E-011
                    90 -3.063252484503415E-005
                    91 -1.562471903075266E-004
                    92 -1.752696730848040E-004
                    93 -5.408876071333010E-004
                    94  1.512619964449870E-004
                    95 -5.764819607816540E-005
                    96  9.001802919594650E-005
                    97 -9.642503641556360E-005
                    98 -1.002936756810300E-010
                    99  3.366677457047450E-004
                   100  3.728823827433760E-004
                   101  1.889287564057840E-011
                   102  6.200529286335520E-004
                   103 -1.699978488018570E-003
                   104 -2.756682085109770E-011
                   105 -1.407433503906978E-005
                   106  1.262142464481820E-012
                   107  1.663110570310050E-011
                   108 -3.657692317379940E-005
                   109 -1.223170085977420E-005
                   110  7.762164108057137E-005
                   111 -4.161375652335900E-011
                   112 -5.198721318182530E-011
                   113 -1.558131892871114E-004
                   114  1.046294488762140E-004
                   115  5.482414887315153E-011
                   116 -1.788388522860466E-005
                   117 -2.172136013754066E-005
                   118 -7.459691293405640E-011
                   119  4.859337435419570E-012
                   120 -9.828750852563195E-006
                   121 -4.175630151404347E-005
                   122 -2.420314307275730E-004
                   123 -6.525936553355010E-004
                   124  1.721314561454840E-004
                   125  2.900266265544710E-004
                   126 -3.449700601455130E-005
                   127 -2.369517295726370E-004
                   128 -1.534986188116800E-011
                   129  2.344934671908280E-004
                   130  6.475394837822360E-004
                   131 -1.039479078219450E-011
                   132  4.234255703688280E-004
                   133  1.932172911306560E-003
                   134  5.135849015507260E-011
                   135  1.503643328044738E-005
                   136  9.293110814962849E-012
                   137  3.670972767040890E-010
                   138  4.869869988473740E-005
                   139 -3.590885570679160E-006
                   140  2.047597768124113E-004
                   141  2.333553693123330E-011
                   142 -2.066420934183950E-010
                   143  3.952687696600280E-004
                   144  2.150972010851460E-004
                   145 -3.096120704866365E-012
                   146 -1.209313668541382E-005
                   147 -6.391706682805129E-005
                   148  2.659178074313160E-011
                   149  1.224894092201200E-011
                   150 -1.199802407343727E-005
                   151 -5.553547217397027E-005
                   152 -1.325425497074360E-004
                   153 -4.076632669686110E-004
                   154  5.539407137169830E-005
                   155  1.966823542005270E-004
                   156  7.664813381676980E-006
                   157 -1.628360487165200E-005
                   158 -3.694049343731210E-011
                   159 -3.267284386924780E-006
                   160  4.706135762426490E-005
                   161  4.938631017262080E-012
                   162  7.356343514842070E-004
                   163 -3.614554206917980E-004
                   164  9.955831802500090E-011
                   165  2.026816782829948E-006
                   166 -1.103851682031460E-011
                   167  3.916247951091370E-010
                   168  4.468996224117420E-006
                   169  1.261650510263790E-005
                   170  1.066316516069379E-004
                   171 -3.013397630799980E-011
                   172 -2.539194691710500E-010
                   173  4.752310191160020E-005
                   174  3.812572666732340E-005
                   175  1.460011349201348E-012
                   176  4.216614613859439E-006
                   177 -1.399917777467846E-005
                   178  2.586335045432680E-011
                   179 -1.518264489213690E-011
                   180 -2.506164806470714E-005
                   181 -3.020072794463452E-005
                   182 -1.359244703581810E-004
                   183 -4.009653704618450E-004
                   184  3.105120424855160E-005
                   185  2.089620505235030E-004
                   186 -4.577850266406380E-005
                   187 -6.031633459528650E-005
                   188  4.726766969051450E-011
                   189  2.574123880268820E-004
                   190  1.193228270212070E-004
                   191 -2.487662431578020E-011
                   192  1.303072172828480E-003
                   193 -3.102500386074000E-004
                   194 -1.399660676211100E-011
                   195  8.848762543202809E-007
                   196  2.860251400492210E-013
                   197  3.350822809214000E-011
                   198 -2.592165681483000E-006
                   199  4.163431817129880E-006
                   200 -8.078211468306810E-006
                   201 -7.345731254408791E-012
                   202  8.450821769706760E-011
                   203 -6.676231645236900E-005
                   204 -1.978162766349970E-004
                   205 -4.728055021050617E-011
                   206 -9.471755231245744E-006
                   207 -3.837010874676231E-006
                   208 -3.258341023745580E-011
                   209  3.308093463865050E-012
                   210  7.822197018492479E-006
                   211 -3.921477537778545E-006
                   212 -2.396579785643170E-005
                   213  1.076912858711400E-004
                   214  1.979732327221530E-005
                   215  2.692424467001420E-005
                   216 -7.680239524570440E-013
                   217 -1.145138621651810E-003
                   218 -4.627886940328830E-004
                   219 -2.126137998234630E-004
                   220  4.169402045422280E-005
                   221 -2.242806533685660E-011
                   222 -1.677403289859410E-004
                   223 -6.335932523217430E-004
                   224  2.385056196819290E-005
                   225 -5.899553546059680E-005
                   226  1.156112092351100E-011
                   227  8.623234064297179E-005
                   228 -6.423224495740310E-004
                   229 -4.453004470010350E-005
                   230 -1.511987397308920E-005
                   231  8.407292392524249E-012
                   232  4.078193189317140E-005
                   233 -4.660907567942690E-004
                   234  1.439078826415330E-005
                   235 -4.102524225475830E-006
                   236  1.200852431289200E-011
                   237  3.470231516810940E-005
                   238 -3.575627706740320E-004
                   239 -9.341261570902031E-006
                   240 -3.032216872196780E-006
                   241  1.562596572473870E-011
                   242 -7.052240043067180E-005
                   243  9.032807947399261E-005
                   244 -2.228771873632760E-008
                   245  2.962295081790990E-005
                   246 -3.798082739970870E-011
 Sym= __2_a__
 Ene=  0.000000000000000E+000
 Spin= Alpha
 Occup=    2.00000000000000     
                     1  4.662271834852980E-005
                     2  3.247250672502750E-004
                     3 -3.036195508495370E-003
                     4 -1.161016762199830E-004
                     5 -1.344491168253210E-003
                     6  4.137088269332840E-004
                     7 -2.879187155551740E-003
                     8  1.043458693475880E-010
                     9  2.121420621652270E-005
                    10  1.066031850978380E-004
                    11 -2.833515009013940E-011
                    12  3.789944119190540E-005
                    13  2.883075592669590E-004
                    14  9.323183304604960E-011
                    15 -2.530869489020402E-005
                    16 -2.133084604197010E-012
                    17 -9.558493231293599E-012
                    18  4.776771904865860E-005
                    19 -2.039094778426410E-005
                    20  1.188043145524143E-004
                    21  6.391625297927080E-012
                    22  1.598037928538050E-010
                    23 -1.059850730954004E-004
                    24  1.508500316775330E-004
                    25  1.285549947535892E-010
                    26  1.783125530110995E-005
                    27 -9.256756844798932E-005
                    28 -1.225710695450018E-010
                    29  1.708020889103840E-010
                    30  6.543766459645761E-005
                    31 -1.452986517113704E-004
                    32  -1.00088144518064     
                    33 -9.054575772401079E-003
                    34 -2.767732602563890E-003
                    35  8.074324467120361E-003
                    36  2.142070877045760E-004
                    37  3.381888089482790E-003
                    38  2.115576924390230E-011
                    39  1.410278661007380E-004
                    40 -2.238101175143560E-004
                    41 -3.369715721571010E-011
                    42  1.616633250163810E-004
                    43 -4.050616869070790E-003
                    44  4.395903481671030E-010
                    45  5.244321463943201E-004
                    46 -3.698311324210500E-011
                    47  1.661002841768780E-011
                    48  1.979143119005808E-004
                    49 -3.138501981188210E-005
                    50 -5.538985669297272E-004
                    51 -6.397922971343260E-011
                    52  3.484319628951910E-010
                    53  6.593769693361060E-004
                    54  4.297397943309580E-004
                    55 -2.067704259517036E-011
                    56 -1.432032584110023E-005
                    57 -9.907040125972953E-005
                    58  7.566745346788400E-011
                    59  2.330284779206070E-011
                    60  2.257571102465144E-005
                    61 -3.786074719513965E-004
                    62 -1.273395066955100E-002
                    63  2.066020370032710E-003
                    64  2.323574550012090E-004
                    65 -2.693301209967700E-003
                    66 -9.249069937683531E-006
                    67 -1.633231563203330E-004
                    68  1.567706586243160E-010
                    69 -5.075493947827830E-004
                    70 -1.609950989748530E-004
                    71 -2.401935438046680E-010
                    72  2.094363205359470E-003
                    73 -2.607113087878130E-004
                    74 -5.209244359141170E-010
                    75 -3.507280438173155E-005
                    76  2.472008822374050E-011
                    77  8.061867121045691E-012
                    78  1.060867926699880E-005
                    79 -4.178645596518290E-006
                    80  4.275148043290998E-004
                    81 -2.523016480788040E-010
                    82 -1.694941296378930E-010
                    83  6.668590605166380E-004
                    84  2.623330416923050E-004
                    85 -3.528308044481059E-011
                    86 -2.957810896071360E-005
                    87  5.848465716724558E-005
                    88  3.321750483856060E-011
                    89 -2.362236673800500E-011
                    90 -4.749218259881163E-005
                    91 -1.478375423249210E-004
                    92 -1.565250716486770E-002
                    93  2.144554703300760E-003
                    94  2.997867376295230E-004
                    95 -3.183058802291840E-003
                    96 -2.563294949061050E-004
                    97 -2.728106517942460E-004
                    98  1.579755438334250E-010
                    99  9.403537766804000E-004
                   100  9.264189693501190E-007
                   101 -2.827954166833310E-010
                   102 -1.693821112240080E-003
                   103  2.956806009452610E-005
                   104 -4.937747614876490E-010
                   105 -2.323025880521421E-005
                   106 -1.618170153937020E-011
                   107  1.430988223322120E-011
                   108  1.085334063456172E-005
                   109 -2.703554085508450E-006
                   110  4.184001476954616E-004
                   111  2.298877462807290E-010
                   112 -2.420336411774100E-010
                   113  3.923441259199500E-004
                   114 -2.400784094011240E-004
                   115 -3.660528662911308E-011
                   116  3.169458201070341E-005
                   117  7.361430721941376E-005
                   118  4.322774545720320E-011
                   119  4.142892792258320E-011
                   120  2.134450148828239E-006
                   121 -1.345842003809921E-004
                   122  5.906614599921220E-005
                   123  6.407166126369040E-004
                   124 -2.296614947452190E-004
                   125  1.343912175221370E-004
                   126 -2.749321201669980E-006
                   127  4.330187039996650E-004
                   128 -2.585275917741350E-010
                   129  7.861575513225500E-005
                   130 -6.256219914467160E-004
                   131  6.837011986532910E-010
                   132 -3.701566090897480E-004
                   133 -9.305450915421079E-004
                   134  9.103761950978980E-010
                   135 -1.836222966431472E-005
                   136 -6.331129900221760E-011
                   137  3.807667802021170E-011
                   138 -2.190545832060320E-006
                   139 -4.462407770636030E-005
                   140 -1.287767044062941E-004
                   141  8.225942657163230E-010
                   142 -1.179155199136040E-010
                   143 -2.585064715199380E-004
                   144  1.041329398029060E-004
                   145  1.391491511307377E-010
                   146 -9.115144303141425E-006
                   147  3.639514787430317E-005
                   148  1.036343856393224E-010
                   149  9.550681933108340E-011
                   150  4.328816879954979E-005
                   151 -3.782813754044458E-005
                   152 -1.637579588431210E-004
                   153  5.993216250175490E-004
                   154 -2.288429240634420E-004
                   155  4.809907827706670E-005
                   156  4.352082216190390E-005
                   157  4.828545944881300E-004
                   158 -2.281866998211850E-010
                   159 -1.342715981419050E-004
                   160 -5.508940853449010E-004