[Molden Format]
[Atoms] AU
  N     1    7    -4.4036118900    0.0644795400   -0.0223989400        
  C     2    6    -1.7767264000    0.0042016700    0.0093106600        
  C     3    6    -0.4286556700    0.0153297200   -2.2644035100        
  C     4    6    -0.4239057700   -0.0021513300    2.2733470600        
  C     5    6     2.1846203900    0.0086439600   -2.2529569600        
  C     6    6     2.1925649100   -0.0037491500    2.2554433700        
  C     7    6     3.5182284800   -0.0028807100    0.0000592500        
  H     8    1    -5.0264418600   -0.3407944700   -1.1167743700        
  H     9    1    -5.2236992300   -0.3746678600    1.6389251400        
  H    10    1    -1.4330946700    0.0416674700   -4.0260679400        
  H    11    1    -1.4217991900    0.0029143100    4.0396385200        
  H    12    1     3.1832603200    0.0128543000   -4.0195292200        
  H    13    1     3.1939674000   -0.0101688000    4.0203966000        
  H    14    1     5.5458037400   -0.0066942300   -0.0034598900        
[5D]
[7F]
[GTO]
  1  0
   s    12 1.00
  0.114200D+05  0.172695D-04
  0.171200D+04  0.134411D-03
  0.389300D+03  0.694561D-03
  0.110000D+03  0.278531D-02
  0.355700D+02  0.863457D-02
  0.125400D+02  0.199805D-01
  0.464400D+01  0.262908D-01
  0.129300D+01 -0.243845D-01
  0.511800D+00 -0.924934D-01
  0.178700D+00 -0.339683D+00
  0.246240D-01  0.345111D+00
  0.112530D-01  0.752750D+00
   s    10 1.00
  0.114200D+05  0.523000D-03
  0.171200D+04  0.404500D-02
  0.389300D+03  0.207750D-01
  0.110000D+03  0.807269D-01
  0.355700D+02  0.233074D+00
  0.125400D+02  0.433501D+00
  0.464400D+01  0.347472D+00
  0.129300D+01  0.412620D-01
  0.511800D+00 -0.850799D-02
  0.178700D+00  0.238400D-02
   s    10 1.00
  0.114200D+05 -0.115000D-03
  0.171200D+04 -0.895000D-03
  0.389300D+03 -0.462400D-02
  0.110000D+03 -0.185280D-01
  0.355700D+02 -0.573390D-01
  0.125400D+02 -0.132076D+00
  0.464400D+01 -0.172510D+00
  0.129300D+01  0.151814D+00
  0.511800D+00  0.599944D+00
  0.178700D+00  0.387462D+00
   s     1 1.00
  0.129300D+01  0.100000D+01
   s     1 1.00
  0.178700D+00  0.100000D+01
   p     5 1.00
  0.266300D+02  0.146700D-01
  0.594800D+01  0.917640D-01
  0.174200D+01  0.298683D+00
  0.555000D+00  0.498487D+00
  0.172500D+00  0.337023D+00
   p     1 1.00
  0.174200D+01  0.100000D+01
   p     1 1.00
  0.555000D+00  0.100000D+01
   d     1 1.00
  0.165400D+01  0.100000D+01
   d     1 1.00
  0.469000D+00  0.100000D+01
   f     1 1.00
  0.109300D+01  0.100000D+01
  
  2  0
   s    10 1.00
  0.823600D+04  0.531000D-03
  0.123500D+04  0.410800D-02
  0.280800D+03  0.210870D-01
  0.792700D+02  0.818530D-01
  0.255900D+02  0.234817D+00
  0.899700D+01  0.434401D+00
  0.331900D+01  0.346129D+00
  0.905900D+00  0.393780D-01
  0.364300D+00 -0.898300D-02
  0.128500D+00  0.238500D-02
   s    10 1.00
  0.823600D+04 -0.113000D-03
  0.123500D+04 -0.878000D-03
  0.280800D+03 -0.454000D-02
  0.792700D+02 -0.181330D-01
  0.255900D+02 -0.557600D-01
  0.899700D+01 -0.126895D+00
  0.331900D+01 -0.170352D+00
  0.905900D+00  0.140382D+00
  0.364300D+00  0.598684D+00
  0.128500D+00  0.395389D+00
   s     1 1.00
  0.905900D+00  0.100000D+01
   s     1 1.00
  0.364300D+00  0.100000D+01
   p     5 1.00
  0.187100D+02  0.140310D-01
  0.413300D+01  0.868660D-01
  0.120000D+01  0.290216D+00
  0.382700D+00  0.501008D+00
  0.120900D+00  0.343406D+00
   p     1 1.00
  0.382700D+00  0.100000D+01
   p     1 1.00
  0.120900D+00  0.100000D+01
   d     1 1.00
  0.109700D+01  0.100000D+01
   d     1 1.00
  0.318000D+00  0.100000D+01
   f     1 1.00
  0.761000D+00  0.100000D+01
  
  3  0
   s    10 1.00
  0.823600D+04  0.531000D-03
  0.123500D+04  0.410800D-02
  0.280800D+03  0.210870D-01
  0.792700D+02  0.818530D-01
  0.255900D+02  0.234817D+00
  0.899700D+01  0.434401D+00
  0.331900D+01  0.346129D+00
  0.905900D+00  0.393780D-01
  0.364300D+00 -0.898300D-02
  0.128500D+00  0.238500D-02
   s    10 1.00
  0.823600D+04 -0.113000D-03
  0.123500D+04 -0.878000D-03
  0.280800D+03 -0.454000D-02
  0.792700D+02 -0.181330D-01
  0.255900D+02 -0.557600D-01
  0.899700D+01 -0.126895D+00
  0.331900D+01 -0.170352D+00
  0.905900D+00  0.140382D+00
  0.364300D+00  0.598684D+00
  0.128500D+00  0.395389D+00
   s     1 1.00
  0.905900D+00  0.100000D+01
   s     1 1.00
  0.364300D+00  0.100000D+01
   p     5 1.00
  0.187100D+02  0.140310D-01
  0.413300D+01  0.868660D-01
  0.120000D+01  0.290216D+00
  0.382700D+00  0.501008D+00
  0.120900D+00  0.343406D+00
   p     1 1.00
  0.382700D+00  0.100000D+01
   p     1 1.00
  0.120900D+00  0.100000D+01
   d     1 1.00
  0.109700D+01  0.100000D+01
   d     1 1.00
  0.318000D+00  0.100000D+01
   f     1 1.00
  0.761000D+00  0.100000D+01
  
  4  0
   s    10 1.00
  0.823600D+04  0.531000D-03
  0.123500D+04  0.410800D-02
  0.280800D+03  0.210870D-01
  0.792700D+02  0.818530D-01
  0.255900D+02  0.234817D+00
  0.899700D+01  0.434401D+00
  0.331900D+01  0.346129D+00
  0.905900D+00  0.393780D-01
  0.364300D+00 -0.898300D-02
  0.128500D+00  0.238500D-02
   s    10 1.00
  0.823600D+04 -0.113000D-03
  0.123500D+04 -0.878000D-03
  0.280800D+03 -0.454000D-02
  0.792700D+02 -0.181330D-01
  0.255900D+02 -0.557600D-01
  0.899700D+01 -0.126895D+00
  0.331900D+01 -0.170352D+00
  0.905900D+00  0.140382D+00
  0.364300D+00  0.598684D+00
  0.128500D+00  0.395389D+00
   s     1 1.00
  0.905900D+00  0.100000D+01
   s     1 1.00
  0.364300D+00  0.100000D+01
   p     5 1.00
  0.187100D+02  0.140310D-01
  0.413300D+01  0.868660D-01
  0.120000D+01  0.290216D+00
  0.382700D+00  0.501008D+00
  0.120900D+00  0.343406D+00
   p     1 1.00
  0.382700D+00  0.100000D+01
   p     1 1.00
  0.120900D+00  0.100000D+01
   d     1 1.00
  0.109700D+01  0.100000D+01
   d     1 1.00
  0.318000D+00  0.100000D+01
   f     1 1.00
  0.761000D+00  0.100000D+01
  
  5  0
   s    10 1.00
  0.823600D+04  0.531000D-03
  0.123500D+04  0.410800D-02
  0.280800D+03  0.210870D-01
  0.792700D+02  0.818530D-01
  0.255900D+02  0.234817D+00
  0.899700D+01  0.434401D+00
  0.331900D+01  0.346129D+00
  0.905900D+00  0.393780D-01
  0.364300D+00 -0.898300D-02
  0.128500D+00  0.238500D-02
   s    10 1.00
  0.823600D+04 -0.113000D-03
  0.123500D+04 -0.878000D-03
  0.280800D+03 -0.454000D-02
  0.792700D+02 -0.181330D-01
  0.255900D+02 -0.557600D-01
  0.899700D+01 -0.126895D+00
  0.331900D+01 -0.170352D+00
  0.905900D+00  0.140382D+00
  0.364300D+00  0.598684D+00
  0.128500D+00  0.395389D+00
   s     1 1.00
  0.905900D+00  0.100000D+01
   s     1 1.00
  0.364300D+00  0.100000D+01
   p     5 1.00
  0.187100D+02  0.140310D-01
  0.413300D+01  0.868660D-01
  0.120000D+01  0.290216D+00
  0.382700D+00  0.501008D+00
  0.120900D+00  0.343406D+00
   p     1 1.00
  0.382700D+00  0.100000D+01
   p     1 1.00
  0.120900D+00  0.100000D+01
   d     1 1.00
  0.109700D+01  0.100000D+01
   d     1 1.00
  0.318000D+00  0.100000D+01
   f     1 1.00
  0.761000D+00  0.100000D+01
  
  6  0
   s    10 1.00
  0.823600D+04  0.531000D-03
  0.123500D+04  0.410800D-02
  0.280800D+03  0.210870D-01
  0.792700D+02  0.818530D-01
  0.255900D+02  0.234817D+00
  0.899700D+01  0.434401D+00
  0.331900D+01  0.346129D+00
  0.905900D+00  0.393780D-01
  0.364300D+00 -0.898300D-02
  0.128500D+00  0.238500D-02
   s    10 1.00
  0.823600D+04 -0.113000D-03
  0.123500D+04 -0.878000D-03
  0.280800D+03 -0.454000D-02
  0.792700D+02 -0.181330D-01
  0.255900D+02 -0.557600D-01
  0.899700D+01 -0.126895D+00
  0.331900D+01 -0.170352D+00
  0.905900D+00  0.140382D+00
  0.364300D+00  0.598684D+00
  0.128500D+00  0.395389D+00
   s     1 1.00
  0.905900D+00  0.100000D+01
   s     1 1.00
  0.364300D+00  0.100000D+01
   p     5 1.00
  0.187100D+02  0.140310D-01
  0.413300D+01  0.868660D-01
  0.120000D+01  0.290216D+00
  0.382700D+00  0.501008D+00
  0.120900D+00  0.343406D+00
   p     1 1.00
  0.382700D+00  0.100000D+01
   p     1 1.00
  0.120900D+00  0.100000D+01
   d     1 1.00
  0.109700D+01  0.100000D+01
   d     1 1.00
  0.318000D+00  0.100000D+01
   f     1 1.00
  0.761000D+00  0.100000D+01
  
  7  0
   s    10 1.00
  0.823600D+04  0.531000D-03
  0.123500D+04  0.410800D-02
  0.280800D+03  0.210870D-01
  0.792700D+02  0.818530D-01
  0.255900D+02  0.234817D+00
  0.899700D+01  0.434401D+00
  0.331900D+01  0.346129D+00
  0.905900D+00  0.393780D-01
  0.364300D+00 -0.898300D-02
  0.128500D+00  0.238500D-02
   s    10 1.00
  0.823600D+04 -0.113000D-03
  0.123500D+04 -0.878000D-03
  0.280800D+03 -0.454000D-02
  0.792700D+02 -0.181330D-01
  0.255900D+02 -0.557600D-01
  0.899700D+01 -0.126895D+00
  0.331900D+01 -0.170352D+00
  0.905900D+00  0.140382D+00
  0.364300D+00  0.598684D+00
  0.128500D+00  0.395389D+00
   s     1 1.00
  0.905900D+00  0.100000D+01
   s     1 1.00
  0.364300D+00  0.100000D+01
   p     5 1.00
  0.187100D+02  0.140310D-01
  0.413300D+01  0.868660D-01
  0.120000D+01  0.290216D+00
  0.382700D+00  0.501008D+00
  0.120900D+00  0.343406D+00
   p     1 1.00
  0.382700D+00  0.100000D+01
   p     1 1.00
  0.120900D+00  0.100000D+01
   d     1 1.00
  0.109700D+01  0.100000D+01
   d     1 1.00
  0.318000D+00  0.100000D+01
   f     1 1.00
  0.761000D+00  0.100000D+01
  
  8  0
   s     4 1.00
  0.130100D+02  0.196850D-01
  0.196200D+01  0.137977D+00
  0.444600D+00  0.478148D+00
  0.122000D+00  0.501240D+00
   s     1 1.00
  0.122000D+00  0.100000D+01
   p     1 1.00
  0.727000D+00  0.100000D+01
  
  9  0
   s     4 1.00
  0.130100D+02  0.196850D-01
  0.196200D+01  0.137977D+00
  0.444600D+00  0.478148D+00
  0.122000D+00  0.501240D+00
   s     1 1.00
  0.122000D+00  0.100000D+01
   p     1 1.00
  0.727000D+00  0.100000D+01
  
 10  0
   s     4 1.00
  0.130100D+02  0.196850D-01
  0.196200D+01  0.137977D+00
  0.444600D+00  0.478148D+00
  0.122000D+00  0.501240D+00
   s     1 1.00
  0.122000D+00  0.100000D+01
   p     1 1.00
  0.727000D+00  0.100000D+01
  
 11  0
   s     4 1.00
  0.130100D+02  0.196850D-01
  0.196200D+01  0.137977D+00
  0.444600D+00  0.478148D+00
  0.122000D+00  0.501240D+00
   s     1 1.00
  0.122000D+00  0.100000D+01
   p     1 1.00
  0.727000D+00  0.100000D+01
  
 12  0
   s     4 1.00
  0.130100D+02  0.196850D-01
  0.196200D+01  0.137977D+00
  0.444600D+00  0.478148D+00
  0.122000D+00  0.501240D+00
   s     1 1.00
  0.122000D+00  0.100000D+01
   p     1 1.00
  0.727000D+00  0.100000D+01
  
 13  0
   s     4 1.00
  0.130100D+02  0.196850D-01
  0.196200D+01  0.137977D+00
  0.444600D+00  0.478148D+00
  0.122000D+00  0.501240D+00
   s     1 1.00
  0.122000D+00  0.100000D+01
   p     1 1.00
  0.727000D+00  0.100000D+01
  
 14  0
   s     4 1.00
  0.130100D+02  0.196850D-01
  0.196200D+01  0.137977D+00
  0.444600D+00  0.478148D+00
  0.122000D+00  0.501240D+00
   s     1 1.00
  0.122000D+00  0.100000D+01
   p     1 1.00
  0.727000D+00  0.100000D+01
  
[MO]
 Sym= __1_A__
 Ene=  0.000000000000000E+000
 Spin= Alpha
 Occup=    2.00000000000000     
                     1  1.415925088394199E-004
                     2  0.997403409108774     
                     3  1.069722979400814E-002
                     4  2.910725508181154E-003
                     5  1.694381105787243E-003
                     6  3.904357649495202E-003
                     7 -2.631002805962997E-003
                     8 -6.323230270018258E-004
                     9 -6.988109029872862E-004
                    10 -3.237801859305470E-004
                    11 -6.319221274101947E-004
                    12 -4.453995799237291E-004
                    13  1.533682713808804E-003
                    14 -1.115135922460049E-004
                    15  4.971708683756261E-004
                    16  6.012523557959672E-004
                    17  3.999919239144467E-004
                    18  2.702435558728178E-004
                    19  2.844669214603742E-004
                    20 -3.656213948916787E-004
                    21 -9.671656065696286E-005
                    22  2.842784088191700E-005
                    23 -5.230011142639232E-006
                    24 -3.079994905899063E-004
                    25  6.165449951623453E-005
                    26 -5.494948060329485E-004
                    27 -2.798072278183891E-004
                    28 -7.189709507063200E-005
                    29 -2.006486125589589E-004
                    30 -1.296699747848557E-004
                    31 -1.155105830261272E-004
                    32 -3.380896514896104E-004
                    33  2.113264209666421E-003
                    34  1.757380086571707E-004
                    35 -2.361147880206603E-004
                    36 -6.343222218251292E-003
                    37  7.445712594528668E-005
                    38  3.197103373608714E-004
                    39  1.380989243267675E-004
                    40  5.978390354800021E-006
                    41 -2.409444323709966E-004
                    42  3.513222872796901E-003
                    43  6.876557396009516E-004
                    44  1.887803788890769E-004
                    45 -2.763730260391818E-004
                    46  3.411593463972860E-005
                    47 -4.895318226896967E-006
                    48  2.084772299243422E-004
                    49  4.265837493818055E-005
                    50  3.910720857222786E-004
                    51 -5.241356636720881E-004
                    52  3.797947700790589E-005
                    53  1.513558809504385E-004
                    54 -2.720000737620804E-004
                    55  6.636221214929023E-006
                    56 -1.663162246297527E-004
                    57  1.399788499081754E-005
                    58  3.389120766017934E-007
                    59 -2.477137206994497E-005
                    60 -4.116930719174985E-005
                    61  4.237354809452479E-005
                    62 -2.310092664606991E-004
                    63 -1.867368199975142E-003
                    64  9.021302921038114E-005
                    65  3.670234590298004E-004
                    66  1.134172276225222E-003
                    67 -1.144405763227734E-005
                    68 -8.817686274275314E-004
                    69  5.935350290518498E-004
                    70  6.671541726437289E-005
                    71 -1.799529954704060E-004
                    72 -3.814987584613429E-004
                    73 -2.904285114605662E-004
                    74 -2.209706722404170E-004
                    75 -8.492903080188654E-005
                    76 -1.697157141832330E-006
                    77  1.194104380751238E-005
                    78  5.711315585167312E-005
                    79 -3.447276640610381E-006
                    80  5.030206927701310E-007
                    81  1.834578154644347E-004
                    82 -1.412980477619229E-005
                    83  3.675530692713964E-006
                    84  1.432820712278681E-005
                    85 -9.505765450062907E-006
                    86 -6.991543260222478E-005
                    87  1.075680858905432E-005
                    88 -2.504790623853504E-005
                    89  7.632304768685292E-006
                    90 -5.546262577714715E-005
                    91 -6.867593084943135E-006
                    92 -2.208476163986847E-004
                    93 -1.581315391289136E-003
                    94  9.299818618522235E-006
                    95  9.327802770428992E-004
                    96  8.813461766241579E-004
                    97  5.699174041735838E-006
                    98  6.642677649645542E-004
                    99  4.260457278939997E-004
                   100  3.833772493199822E-005
                   101 -3.175200072783071E-004
                   102  1.312212934382328E-004
                   103 -2.915459581821484E-004
                   104  2.692344325947241E-004
                   105 -7.609957981713679E-005
                   106  4.290921653404531E-005
                   107 -1.837633624588391E-005
                   108  8.161279443439688E-005
                   109 -9.026253686045047E-006
                   110  3.314997197815462E-004
                   111 -1.994320127426270E-004
                   112  3.012469061008380E-005
                   113 -1.979710811426991E-004
                   114  4.995823181989481E-005
                   115  1.244030054122839E-005
                   116 -9.411857054387063E-005
                   117  1.916279379689794E-005
                   118  3.221685538871542E-005
                   119 -1.148075486215329E-005
                   120 -6.726397091054296E-005
                   121 -1.269173766503140E-005
                   122 -1.370798653309909E-004
                   123  5.935637957437879E-005
                   124  8.895300825761341E-005
                   125  1.543865369372033E-004
                   126 -8.496564799071471E-004
                   127  1.600060399383396E-006
                   128  4.194916842214671E-005
                   129  3.236974210765053E-004
                   130 -9.158360836288378E-006
                   131  2.400961458614217E-005
                   132  3.511694475281141E-004
                   133  1.133426388681264E-004
                   134 -2.345773590013896E-004
                   135  4.285731955436440E-006
                   136  3.244499488943636E-006
                   137 -9.687623905541087E-007
                   138 -9.637697838849516E-006
                   139  6.617198136582302E-006
                   140  6.041456601831405E-005
                   141  1.389383503604137E-004
                   142 -1.177929679663893E-006
                   143 -1.375448934337437E-004
                   144 -2.363053921081551E-005
                   145  1.551013338798070E-006
                   146 -1.649014314280442E-005
                   147  1.424130147050283E-006
                   148  6.745885287926082E-006
                   149 -2.711295846392465E-006
                   150 -3.389203632325154E-005
                   151 -1.266785290631335E-007
                   152 -1.424806495253736E-004
                   153 -2.158326774432162E-005
                   154  6.556166174713725E-005
                   155  4.060257114108124E-004
                   156 -7.628832237448038E-004
                   157  2.520941299306883E-006
                   158 -2.884076772596668E-005
                   159  1.917938224482834E-004
                   160 -1.253315403486480E-005
                   161  1.207158563066887E-005
                   162  8.216772662889795E-004
                   163  1.009708281244015E-004
                   164  1.338036184726585E-004
                   165  7.032633635049632E-006
                   166  3.675028255863983E-006
                   167  1.840039126562441E-006
                   168 -8.350406358896784E-006
                   169  3.212340613301208E-006
                   170  3.821006757709196E-005
                   171 -2.134510154425818E-004
                   172 -5.834044727283297E-006
                   173 -1.402331899984712E-004
                   174 -6.857807840840278E-006
                   175  8.719648385070243E-006
                   176 -1.917949296867791E-005
                   177  1.445305922213547E-006
                   178  2.729002968566140E-006
                   179  9.070864644851201E-007
                   180 -4.419402391736631E-005
                   181  9.694183742669883E-007
                   182 -9.382624605257514E-005
                   183 -2.843052343638273E-004
                   184  2.416544600713937E-005
                   185  9.419756074673426E-005
                   186 -2.043401387922650E-006
                   187 -1.964415932897558E-005
                   188 -1.202506547316672E-005
                   189  2.839615773050008E-005
                   190  1.996563167859994E-005
                   191 -6.026509053305832E-006
                   192 -2.811354041153318E-005
                   193 -8.106368221640479E-005
                   194 -2.618016303284779E-004
                   195 -1.905887718396295E-005
                   196 -6.299721331518085E-007
                   197  1.552773029793796E-007
                   198  1.108538736633171E-005
                   199 -2.506023133852973E-006
                   200 -8.982864788918850E-005
                   201  9.837042001339231E-006
                   202 -5.823383158659359E-006
                   203  4.359786035750656E-005
                   204  1.044786036120493E-005
                   205 -2.972579674356949E-006
                   206 -4.807560176029721E-006
                   207  2.430013875324265E-006
                   208 -1.584186400522857E-006
                   209  7.530080984890239E-007
                   210 -5.383619932407421E-006
                   211 -1.406423563061790E-006
                   212  5.060645161050307E-003
                   213 -3.820920629821991E-003
                   214  4.267559915850377E-005
                   215  8.704463722409612E-005
                   216  8.545055207956024E-005
                   217  4.370318323109536E-003
                   218 -2.552720801523827E-003
                   219  2.913103650935057E-004
                   220  1.748723682532022E-004
                   221 -4.113228330484821E-004
                   222 -6.952207847485846E-004
                   223  8.040259853322332E-005
                   224 -3.879614748017416E-005
                   225  8.623202856771479E-006
                   226 -2.004257274126568E-005
                   227 -7.805742381000159E-004
                   228  1.267472906595974E-004
                   229 -9.281822397698180E-005
                   230  9.199142587621746E-006
                   231 -5.518130116065273E-006
                   232 -2.425174765165221E-004
                   233 -2.964422334892778E-004
                   234  3.724284143376523E-006
                   235 -1.961931375189053E-006
                   236 -6.971713622526477E-006
                   237 -1.500240370374480E-004
                   238 -3.847908439670503E-004
                   239  3.961299905595989E-006
                   240 -8.790842605941539E-007
                   241  6.423052974812592E-006
                   242  9.152080370244558E-005
                   243 -4.362502956892750E-005
                   244  1.395922342616328E-005
                   245  1.012415603665258E-006
                   246  3.362574906253717E-006
 Sym= __2_A__
 Ene=  0.000000000000000E+000
 Spin= Alpha
 Occup=    2.00000000000000     
                     1 -2.492247250804204E-005
                     2 -1.361783064089146E-004
                     3  1.384517221972921E-003
                     4  1.348745746748616E-005
                     5  1.566167280186044E-003
                     6  2.326842108883418E-003
                     7  3.201518893705742E-004
                     8  5.102782115644597E-005
                     9 -1.116843784798191E-004
                    10  6.692991252907671E-005
                    11  3.536235941788452E-005
                    12  1.712881151042657E-005
                    13  4.706599275086526E-005
                    14  1.425787106947673E-005
                    15 -7.497961917356523E-005
                    16 -1.013432545447811E-005
                    17 -6.689615307684331E-006
                    18  1.657516399266764E-005
                    19 -1.009041285550870E-005
                    20  4.056918943919732E-004
                    21 -1.251170999657516E-004
                    22 -2.060397093784574E-005
                    23 -2.797665006895756E-006
                    24 -7.791817548626848E-005
                    25  1.881409183290239E-005
                    26  1.408440450766996E-004
                    27 -5.108448626258098E-005
                    28  1.195959122841498E-005
                    29  2.369696080571333E-005
                    30  1.442858678846419E-004
                    31  3.111580564457919E-005
                    32   1.00099885334389     
                    33  8.958709170175525E-003
                    34  2.782538763409705E-003
                    35 -8.072585989685733E-003
                    36 -3.088979285333991E-003
                    37  4.509051702628104E-004
                    38  2.136968741895747E-005
                    39  1.232975665798171E-003
                    40 -1.412886700094879E-004
                    41 -7.066362063886639E-005
                    42  3.929237313345993E-003
                    43 -9.996198878344045E-005
                    44 -1.151382516701443E-004
                    45  2.748708730691715E-004
                    46  1.884047567171769E-005
                    47 -3.062833001230530E-006
                    48  4.879873718613228E-004
                    49 -6.237347985589396E-006
                    50 -1.078798257571896E-003
                    51 -1.638951647541127E-004
                    52  1.908367082260928E-005
                    53 -1.123755463097984E-004
                    54 -1.877381768436178E-005
                    55 -6.908852074269451E-006
                    56  3.612449334886828E-004
                    57 -6.764606413785885E-006
                    58 -8.411377661302985E-006
                    59  2.165271100221641E-006
                    60  9.800361450236188E-005
                    61  1.060788580130277E-005
                    62  1.055095067689684E-002
                    63 -1.989570741207699E-003
                    64 -2.845504158825586E-004
                    65  3.085202776903393E-003
                    66 -1.353800900046574E-004
                    67  6.901363354213184E-005
                    68  2.432849426616976E-004
                    69  3.233363208085043E-005
                    70  1.313548367748005E-005
                    71  4.429668627899015E-004
                    72  2.381855656242740E-004
                    73  6.987495347799665E-006
                    74 -2.027064260203280E-003
                    75 -1.803820204514312E-005
                    76  2.980607603064333E-005
                    77  4.665326560205603E-006
                    78 -3.855202323152548E-005
                    79 -3.571271728906829E-006
                    80 -4.699167598407930E-004
                    81 -4.456292435810903E-004
                    82  1.791159776925034E-005
                    83  7.785198099727936E-004
                    84 -3.256707232701935E-006
                    85  6.012174241178945E-005
                    86  1.233342316320224E-004
                    87  3.810355976459054E-006
                    88 -5.347970320309102E-006
                    89 -5.200845537111150E-006
                    90 -2.126632867968999E-005
                    91  2.905385930224181E-006
                    92  1.088454027736384E-002
                    93 -1.986540849259681E-003
                    94 -3.186599218799798E-004
                    95  3.306998420198067E-003
                    96 -1.553285073972382E-004
                    97  7.569262288516194E-005
                    98 -2.279006790482071E-004
                    99  2.427475251576744E-005
                   100  6.890149781503211E-006
                   101 -5.990160304928634E-004
                   102  6.675025537808544E-005
                   103 -1.216510009724956E-005
                   104  1.922533028086822E-003
                   105 -1.423657685946667E-005
                   106 -2.424464173563032E-005
                   107 -3.757156214926920E-006
                   108 -3.528734272253270E-005
                   109 -3.335682875221812E-006
                   110 -3.991071817508524E-004
                   111  4.433562542015938E-004
                   112 -9.741273615786009E-006
                   113  7.428285696680188E-004
                   114  6.183859382016461E-007
                   115 -5.075632104588272E-005
                   116  1.162550857899754E-004
                   117  5.175960612326955E-007
                   118  1.539449417565498E-005
                   119  1.369478732181053E-006
                   120 -2.884175111593480E-005
                   121  2.851085548419331E-006
                   122 -2.002135410388271E-004
                   123 -7.761770112273641E-004
                   124  2.444931366567737E-004
                   125 -2.529208094646857E-004
                   126 -1.888868748344955E-004
                   127  1.594239906116790E-005
                   128 -4.340772100243504E-005
                   129  5.937171029045104E-004
                   130 -7.281693953746612E-006
                   131  4.342378634393738E-005
                   132  7.286373671039281E-004
                   133 -1.057132958605369E-005
                   134  3.829458568349051E-004
                   135 -2.148547372141616E-006
                   136  4.349996205826092E-005
                   137  3.229162464516716E-007
                   138 -2.888099691630110E-005
                   139 -9.788114704847046E-007
                   140  2.015268603472010E-004
                   141 -2.483242976201798E-004
                   142 -2.505822276161024E-006
                   143 -2.652104755496158E-004
                   144  3.143142542474778E-006
                   145 -2.151061571555306E-005
                   146  1.951053045388652E-005
                   147  6.019693395598009E-008
                   148 -1.741121356371690E-005
                   149 -4.683634308582572E-007
                   150 -2.214948724388115E-005
                   151 -1.047262663078933E-006
                   152 -1.868111193866889E-004
                   153 -7.495432518185562E-004
                   154  2.544969068265502E-004
                   155 -2.825467167051535E-004
                   156 -1.918110473807954E-004
                   157  1.398058250737840E-005
                   158  3.615971939336248E-005
                   159  5.919971702843880E-004
                   160 -5.388413268375945E-006