[Molden Format]
[Atoms] AU
  N     1    7    -4.4036118900    0.0644795400   -0.0223989400        
  C     2    6    -1.7767264000    0.0042016700    0.0093106600        
  C     3    6    -0.4286556700    0.0153297200   -2.2644035100        
  C     4    6    -0.4239057700   -0.0021513300    2.2733470600        
  C     5    6     2.1846203900    0.0086439600   -2.2529569600        
  C     6    6     2.1925649100   -0.0037491500    2.2554433700        
  C     7    6     3.5182284800   -0.0028807100    0.0000592500        
  H     8    1    -5.0264418600   -0.3407944700   -1.1167743700        
  H     9    1    -5.2236992300   -0.3746678600    1.6389251400        
  H    10    1    -1.4330946700    0.0416674700   -4.0260679400        
  H    11    1    -1.4217991900    0.0029143100    4.0396385200        
  H    12    1     3.1832603200    0.0128543000   -4.0195292200        
  H    13    1     3.1939674000   -0.0101688000    4.0203966000        
  H    14    1     5.5458037400   -0.0066942300   -0.0034598900        
[5D]
[7F]
[GTO]
  1  0
   s    12 1.00
  0.114200D+05  0.172695D-04
  0.171200D+04  0.134411D-03
  0.389300D+03  0.694561D-03
  0.110000D+03  0.278531D-02
  0.355700D+02  0.863457D-02
  0.125400D+02  0.199805D-01
  0.464400D+01  0.262908D-01
  0.129300D+01 -0.243845D-01
  0.511800D+00 -0.924934D-01
  0.178700D+00 -0.339683D+00
  0.246240D-01  0.345111D+00
  0.112530D-01  0.752750D+00
   s    10 1.00
  0.114200D+05  0.523000D-03
  0.171200D+04  0.404500D-02
  0.389300D+03  0.207750D-01
  0.110000D+03  0.807269D-01
  0.355700D+02  0.233074D+00
  0.125400D+02  0.433501D+00
  0.464400D+01  0.347472D+00
  0.129300D+01  0.412620D-01
  0.511800D+00 -0.850799D-02
  0.178700D+00  0.238400D-02
   s    10 1.00
  0.114200D+05 -0.115000D-03
  0.171200D+04 -0.895000D-03
  0.389300D+03 -0.462400D-02
  0.110000D+03 -0.185280D-01
  0.355700D+02 -0.573390D-01
  0.125400D+02 -0.132076D+00
  0.464400D+01 -0.172510D+00
  0.129300D+01  0.151814D+00
  0.511800D+00  0.599944D+00
  0.178700D+00  0.387462D+00
   s     1 1.00
  0.129300D+01  0.100000D+01
   s     1 1.00
  0.178700D+00  0.100000D+01
   p     5 1.00
  0.266300D+02  0.146700D-01
  0.594800D+01  0.917640D-01
  0.174200D+01  0.298683D+00
  0.555000D+00  0.498487D+00
  0.172500D+00  0.337023D+00
   p     1 1.00
  0.174200D+01  0.100000D+01
   p     1 1.00
  0.555000D+00  0.100000D+01
   d     1 1.00
  0.165400D+01  0.100000D+01
   d     1 1.00
  0.469000D+00  0.100000D+01
   f     1 1.00
  0.109300D+01  0.100000D+01
  
  2  0
   s    10 1.00
  0.823600D+04  0.531000D-03
  0.123500D+04  0.410800D-02
  0.280800D+03  0.210870D-01
  0.792700D+02  0.818530D-01
  0.255900D+02  0.234817D+00
  0.899700D+01  0.434401D+00
  0.331900D+01  0.346129D+00
  0.905900D+00  0.393780D-01
  0.364300D+00 -0.898300D-02
  0.128500D+00  0.238500D-02
   s    10 1.00
  0.823600D+04 -0.113000D-03
  0.123500D+04 -0.878000D-03
  0.280800D+03 -0.454000D-02
  0.792700D+02 -0.181330D-01
  0.255900D+02 -0.557600D-01
  0.899700D+01 -0.126895D+00
  0.331900D+01 -0.170352D+00
  0.905900D+00  0.140382D+00
  0.364300D+00  0.598684D+00
  0.128500D+00  0.395389D+00
   s     1 1.00
  0.905900D+00  0.100000D+01
   s     1 1.00
  0.364300D+00  0.100000D+01
   p     5 1.00
  0.187100D+02  0.140310D-01
  0.413300D+01  0.868660D-01
  0.120000D+01  0.290216D+00
  0.382700D+00  0.501008D+00
  0.120900D+00  0.343406D+00
   p     1 1.00
  0.382700D+00  0.100000D+01
   p     1 1.00
  0.120900D+00  0.100000D+01
   d     1 1.00
  0.109700D+01  0.100000D+01
   d     1 1.00
  0.318000D+00  0.100000D+01
   f     1 1.00
  0.761000D+00  0.100000D+01
  
  3  0
   s    10 1.00
  0.823600D+04  0.531000D-03
  0.123500D+04  0.410800D-02
  0.280800D+03  0.210870D-01
  0.792700D+02  0.818530D-01
  0.255900D+02  0.234817D+00
  0.899700D+01  0.434401D+00
  0.331900D+01  0.346129D+00
  0.905900D+00  0.393780D-01
  0.364300D+00 -0.898300D-02
  0.128500D+00  0.238500D-02
   s    10 1.00
  0.823600D+04 -0.113000D-03
  0.123500D+04 -0.878000D-03
  0.280800D+03 -0.454000D-02
  0.792700D+02 -0.181330D-01
  0.255900D+02 -0.557600D-01
  0.899700D+01 -0.126895D+00
  0.331900D+01 -0.170352D+00
  0.905900D+00  0.140382D+00
  0.364300D+00  0.598684D+00
  0.128500D+00  0.395389D+00
   s     1 1.00
  0.905900D+00  0.100000D+01
   s     1 1.00
  0.364300D+00  0.100000D+01
   p     5 1.00
  0.187100D+02  0.140310D-01
  0.413300D+01  0.868660D-01
  0.120000D+01  0.290216D+00
  0.382700D+00  0.501008D+00
  0.120900D+00  0.343406D+00
   p     1 1.00
  0.382700D+00  0.100000D+01
   p     1 1.00
  0.120900D+00  0.100000D+01
   d     1 1.00
  0.109700D+01  0.100000D+01
   d     1 1.00
  0.318000D+00  0.100000D+01
   f     1 1.00
  0.761000D+00  0.100000D+01
  
  4  0
   s    10 1.00
  0.823600D+04  0.531000D-03
  0.123500D+04  0.410800D-02
  0.280800D+03  0.210870D-01
  0.792700D+02  0.818530D-01
  0.255900D+02  0.234817D+00
  0.899700D+01  0.434401D+00
  0.331900D+01  0.346129D+00
  0.905900D+00  0.393780D-01
  0.364300D+00 -0.898300D-02
  0.128500D+00  0.238500D-02
   s    10 1.00
  0.823600D+04 -0.113000D-03
  0.123500D+04 -0.878000D-03
  0.280800D+03 -0.454000D-02
  0.792700D+02 -0.181330D-01
  0.255900D+02 -0.557600D-01
  0.899700D+01 -0.126895D+00
  0.331900D+01 -0.170352D+00
  0.905900D+00  0.140382D+00
  0.364300D+00  0.598684D+00
  0.128500D+00  0.395389D+00
   s     1 1.00
  0.905900D+00  0.100000D+01
   s     1 1.00
  0.364300D+00  0.100000D+01
   p     5 1.00
  0.187100D+02  0.140310D-01
  0.413300D+01  0.868660D-01
  0.120000D+01  0.290216D+00
  0.382700D+00  0.501008D+00
  0.120900D+00  0.343406D+00
   p     1 1.00
  0.382700D+00  0.100000D+01
   p     1 1.00
  0.120900D+00  0.100000D+01
   d     1 1.00
  0.109700D+01  0.100000D+01
   d     1 1.00
  0.318000D+00  0.100000D+01
   f     1 1.00
  0.761000D+00  0.100000D+01
  
  5  0
   s    10 1.00
  0.823600D+04  0.531000D-03
  0.123500D+04  0.410800D-02
  0.280800D+03  0.210870D-01
  0.792700D+02  0.818530D-01
  0.255900D+02  0.234817D+00
  0.899700D+01  0.434401D+00
  0.331900D+01  0.346129D+00
  0.905900D+00  0.393780D-01
  0.364300D+00 -0.898300D-02
  0.128500D+00  0.238500D-02
   s    10 1.00
  0.823600D+04 -0.113000D-03
  0.123500D+04 -0.878000D-03
  0.280800D+03 -0.454000D-02
  0.792700D+02 -0.181330D-01
  0.255900D+02 -0.557600D-01
  0.899700D+01 -0.126895D+00
  0.331900D+01 -0.170352D+00
  0.905900D+00  0.140382D+00
  0.364300D+00  0.598684D+00
  0.128500D+00  0.395389D+00
   s     1 1.00
  0.905900D+00  0.100000D+01
   s     1 1.00
  0.364300D+00  0.100000D+01
   p     5 1.00
  0.187100D+02  0.140310D-01
  0.413300D+01  0.868660D-01
  0.120000D+01  0.290216D+00
  0.382700D+00  0.501008D+00
  0.120900D+00  0.343406D+00
   p     1 1.00
  0.382700D+00  0.100000D+01
   p     1 1.00
  0.120900D+00  0.100000D+01
   d     1 1.00
  0.109700D+01  0.100000D+01
   d     1 1.00
  0.318000D+00  0.100000D+01
   f     1 1.00
  0.761000D+00  0.100000D+01
  
  6  0
   s    10 1.00
  0.823600D+04  0.531000D-03
  0.123500D+04  0.410800D-02
  0.280800D+03  0.210870D-01
  0.792700D+02  0.818530D-01
  0.255900D+02  0.234817D+00
  0.899700D+01  0.434401D+00
  0.331900D+01  0.346129D+00
  0.905900D+00  0.393780D-01
  0.364300D+00 -0.898300D-02
  0.128500D+00  0.238500D-02
   s    10 1.00
  0.823600D+04 -0.113000D-03
  0.123500D+04 -0.878000D-03
  0.280800D+03 -0.454000D-02
  0.792700D+02 -0.181330D-01
  0.255900D+02 -0.557600D-01
  0.899700D+01 -0.126895D+00
  0.331900D+01 -0.170352D+00
  0.905900D+00  0.140382D+00
  0.364300D+00  0.598684D+00
  0.128500D+00  0.395389D+00
   s     1 1.00
  0.905900D+00  0.100000D+01
   s     1 1.00
  0.364300D+00  0.100000D+01
   p     5 1.00
  0.187100D+02  0.140310D-01
  0.413300D+01  0.868660D-01
  0.120000D+01  0.290216D+00
  0.382700D+00  0.501008D+00
  0.120900D+00  0.343406D+00
   p     1 1.00
  0.382700D+00  0.100000D+01
   p     1 1.00
  0.120900D+00  0.100000D+01
   d     1 1.00
  0.109700D+01  0.100000D+01
   d     1 1.00
  0.318000D+00  0.100000D+01
   f     1 1.00
  0.761000D+00  0.100000D+01
  
  7  0
   s    10 1.00
  0.823600D+04  0.531000D-03
  0.123500D+04  0.410800D-02
  0.280800D+03  0.210870D-01
  0.792700D+02  0.818530D-01
  0.255900D+02  0.234817D+00
  0.899700D+01  0.434401D+00
  0.331900D+01  0.346129D+00
  0.905900D+00  0.393780D-01
  0.364300D+00 -0.898300D-02
  0.128500D+00  0.238500D-02
   s    10 1.00
  0.823600D+04 -0.113000D-03
  0.123500D+04 -0.878000D-03
  0.280800D+03 -0.454000D-02
  0.792700D+02 -0.181330D-01
  0.255900D+02 -0.557600D-01
  0.899700D+01 -0.126895D+00
  0.331900D+01 -0.170352D+00
  0.905900D+00  0.140382D+00
  0.364300D+00  0.598684D+00
  0.128500D+00  0.395389D+00
   s     1 1.00
  0.905900D+00  0.100000D+01
   s     1 1.00
  0.364300D+00  0.100000D+01
   p     5 1.00
  0.187100D+02  0.140310D-01
  0.413300D+01  0.868660D-01
  0.120000D+01  0.290216D+00
  0.382700D+00  0.501008D+00
  0.120900D+00  0.343406D+00
   p     1 1.00
  0.382700D+00  0.100000D+01
   p     1 1.00
  0.120900D+00  0.100000D+01
   d     1 1.00
  0.109700D+01  0.100000D+01
   d     1 1.00
  0.318000D+00  0.100000D+01
   f     1 1.00
  0.761000D+00  0.100000D+01
  
  8  0
   s     4 1.00
  0.130100D+02  0.196850D-01
  0.196200D+01  0.137977D+00
  0.444600D+00  0.478148D+00
  0.122000D+00  0.501240D+00
   s     1 1.00
  0.122000D+00  0.100000D+01
   p     1 1.00
  0.727000D+00  0.100000D+01
  
  9  0
   s     4 1.00
  0.130100D+02  0.196850D-01
  0.196200D+01  0.137977D+00
  0.444600D+00  0.478148D+00
  0.122000D+00  0.501240D+00
   s     1 1.00
  0.122000D+00  0.100000D+01
   p     1 1.00
  0.727000D+00  0.100000D+01
  
 10  0
   s     4 1.00
  0.130100D+02  0.196850D-01
  0.196200D+01  0.137977D+00
  0.444600D+00  0.478148D+00
  0.122000D+00  0.501240D+00
   s     1 1.00
  0.122000D+00  0.100000D+01
   p     1 1.00
  0.727000D+00  0.100000D+01
  
 11  0
   s     4 1.00
  0.130100D+02  0.196850D-01
  0.196200D+01  0.137977D+00
  0.444600D+00  0.478148D+00
  0.122000D+00  0.501240D+00
   s     1 1.00
  0.122000D+00  0.100000D+01
   p     1 1.00
  0.727000D+00  0.100000D+01
  
 12  0
   s     4 1.00
  0.130100D+02  0.196850D-01
  0.196200D+01  0.137977D+00
  0.444600D+00  0.478148D+00
  0.122000D+00  0.501240D+00
   s     1 1.00
  0.122000D+00  0.100000D+01
   p     1 1.00
  0.727000D+00  0.100000D+01
  
 13  0
   s     4 1.00
  0.130100D+02  0.196850D-01
  0.196200D+01  0.137977D+00
  0.444600D+00  0.478148D+00
  0.122000D+00  0.501240D+00
   s     1 1.00
  0.122000D+00  0.100000D+01
   p     1 1.00
  0.727000D+00  0.100000D+01
  
 14  0
   s     4 1.00
  0.130100D+02  0.196850D-01
  0.196200D+01  0.137977D+00
  0.444600D+00  0.478148D+00
  0.122000D+00  0.501240D+00
   s     1 1.00
  0.122000D+00  0.100000D+01
   p     1 1.00
  0.727000D+00  0.100000D+01
  
[MO]
 Sym= __1_a__
 Ene=  0.000000000000000E+000
 Spin= Alpha
 Occup=    2.00000000000000     
                     1  1.415925088402080E-004
                     2  0.997403409108774     
                     3  1.069722979388790E-002
                     4  2.910725508184270E-003
                     5  1.694381105883080E-003
                     6  3.904357649486790E-003
                     7 -2.631002805989230E-003
                     8 -6.323230269538510E-004
                     9 -6.988109029990130E-004
                    10 -3.237801859249620E-004
                    11 -6.319221274094050E-004
                    12 -4.453995799442130E-004
                    13  1.533682713811990E-003
                    14 -1.115135922476200E-004
                    15  4.971708683748643E-004
                    16  6.012523558097990E-004
                    17  3.999919239148380E-004
                    18  2.702435558706760E-004
                    19  2.844669214600500E-004
                    20 -3.656213948660492E-004
                    21 -9.671656061972360E-005
                    22  2.842784088182090E-005
                    23 -5.230011145586060E-006
                    24 -3.079994905882080E-004
                    25  6.165449952145852E-005
                    26 -5.494948060343444E-004
                    27 -2.798072278191720E-004
                    28 -7.189709506488860E-005
                    29 -2.006486125598400E-004
                    30 -1.296699747849775E-004
                    31 -1.155105830262420E-004
                    32 -3.380896483205560E-004
                    33  2.113264208052380E-003
                    34  1.757380086941840E-004
                    35 -2.361147880716880E-004
                    36 -6.343222219123920E-003
                    37  7.445712593591990E-005
                    38  3.197103394879110E-004
                    39  1.380989243775450E-004
                    40  5.978390356451010E-006
                    41 -2.409444324513190E-004
                    42  3.513222872975030E-003
                    43  6.876557396039830E-004
                    44  1.887803783866170E-004
                    45 -2.763730260512121E-004
                    46  3.411593470952270E-005
                    47 -4.895318226068620E-006
                    48  2.084772298984540E-004
                    49  4.265837493794690E-005
                    50  3.910720856456353E-004
                    51 -5.241356635694860E-004
                    52  3.797947700421360E-005
                    53  1.513558809469052E-004
                    54 -2.720000737633130E-004
                    55  6.636221209888243E-006
                    56 -1.663162246618887E-004
                    57  1.399788499076986E-005
                    58  3.389120943228440E-007
                    59 -2.477137206982190E-005
                    60 -4.116930719159203E-005
                    61  4.237354809387135E-005
                    62 -2.310092666495030E-004
                    63 -1.867368200591280E-003
                    64  9.021302921641490E-005
                    65  3.670234591054130E-004
                    66  1.134172275996000E-003
                    67 -1.144405760337300E-005
                    68 -8.817686305005180E-004
                    69  5.935350290747690E-004
                    70  6.671541726035600E-005
                    71 -1.799529951610810E-004
                    72 -3.814987586021130E-004
                    73 -2.904285114671780E-004
                    74 -2.209706717636860E-004
                    75 -8.492903080352745E-005
                    76 -1.697157036970010E-006
                    77  1.194104380686970E-005
                    78  5.711315583431760E-005
                    79 -3.447276641452750E-006
                    80  5.030206036687935E-007
                    81  1.834578154111970E-004
                    82 -1.412980477388370E-005
                    83  3.675530679470960E-006
                    84  1.432820712521970E-005
                    85 -9.505765437637682E-006
                    86 -6.991543257812651E-005
                    87  1.075680858919560E-005
                    88 -2.504790625217540E-005
                    89  7.632304768562271E-006
                    90 -5.546262577256015E-005
                    91 -6.867593084820164E-006
                    92 -2.208476164393260E-004
                    93 -1.581315390803780E-003
                    94  9.299818613147639E-006
                    95  9.327802769455970E-004
                    96  8.813461759836710E-004
                    97  5.699174039921860E-006
                    98  6.642677647594710E-004
                    99  4.260457278571490E-004
                   100  3.833772493428810E-005
                   101 -3.175200072771030E-004
                   102  1.312212934607630E-004
                   103 -2.915459581836200E-004
                   104  2.692344323110440E-004
                   105 -7.609957982303624E-005
                   106  4.290921655916530E-005
                   107 -1.837633624577240E-005
                   108  8.161279444008280E-005
                   109 -9.026253686278561E-006
                   110  3.314997197593530E-004
                   111 -1.994320126957200E-004
                   112  3.012469060890740E-005
                   113 -1.979710811287380E-004
                   114  4.995823181981880E-005
                   115  1.244030053059602E-005
                   116 -9.411857054710570E-005
                   117  1.916279379692395E-005
                   118  3.221685537827540E-005
                   119 -1.148075486193160E-005
                   120 -6.726397090339672E-005
                   121 -1.269173766496994E-005
                   122 -1.370798653263660E-004
                   123  5.935637959397300E-005
                   124  8.895300825730819E-005
                   125  1.543865368435750E-004
                   126 -8.496564793587330E-004
                   127  1.600060396688370E-006
                   128  4.194916910855250E-005
                   129  3.236974210546520E-004
                   130 -9.158360836986810E-006
                   131  2.400961452640210E-005
                   132  3.511694472271240E-004
                   133  1.133426388682890E-004
                   134 -2.345773589244070E-004
                   135  4.285731966865360E-006
                   136  3.244499554465390E-006
                   137 -9.687623907656880E-007
                   138 -9.637697849676619E-006
                   139  6.617198136161350E-006
                   140  6.041456606996997E-005
                   141  1.389383503652380E-004
                   142 -1.177929680631810E-006
                   143 -1.375448934507330E-004
                   144 -2.363053921058390E-005
                   145  1.551013325178051E-006
                   146 -1.649014314418836E-005
                   147  1.424130146952563E-006
                   148  6.745885279360560E-006
                   149 -2.711295846268650E-006
                   150 -3.389203632535078E-005
                   151 -1.266785290305606E-007
                   152 -1.424806495682510E-004
                   153 -2.158326752329250E-005
                   154  6.556166173937269E-005
                   155  4.060257113607200E-004
                   156 -7.628832234042030E-004
                   157  2.520941295914930E-006
                   158 -2.884076723075960E-005
                   159  1.917938223882800E-004
                   160 -1.253315403529120E-005
                   161  1.207158556721160E-005
                   162  8.216772661655830E-004
                   163  1.009708281261460E-004
                   164  1.338036185011700E-004
                   165  7.032633652534542E-006
                   166  3.675028274331030E-006
                   167  1.840039126479910E-006
                   168 -8.350406367431720E-006
                   169  3.212340613352890E-006
                   170  3.821006756184153E-005
                   171 -2.134510154672710E-004
                   172 -5.834044727067280E-006
                   173 -1.402331899916580E-004
                   174 -6.857807840735430E-006
                   175  8.719648388145586E-006
                   176 -1.917949296786556E-005
                   177  1.445305922224135E-006
                   178  2.729002973836420E-006
                   179  9.070864644355370E-007
                   180 -4.419402391633866E-005
                   181  9.694183741483660E-007
                   182 -9.382624601178309E-005
                   183 -2.843052338833020E-004
                   184  2.416544599758420E-005
                   185  9.419756067125869E-005
                   186 -2.043401838592180E-006
                   187 -1.964415932771110E-005
                   188 -1.202506618086170E-005
                   189  2.839615779096770E-005
                   190  1.996563167873310E-005
                   191 -6.026509052230300E-006
                   192 -2.811354043453410E-005
                   193 -8.106368221715390E-005
                   194 -2.618016302888090E-004
                   195 -1.905887716145636E-005
                   196 -6.299721118150800E-007
                   197  1.552773028150750E-007
                   198  1.108538735757060E-005
                   199 -2.506023133867830E-006
                   200 -8.982864785145595E-005
                   201  9.837042025859661E-006
                   202 -5.823383159103720E-006
                   203  4.359786034914080E-005
                   204  1.044786036102200E-005
                   205 -2.972579667978138E-006
                   206 -4.807560184103007E-006
                   207  2.430013875403097E-006
                   208 -1.584186402623322E-006
                   209  7.530080985889620E-007
                   210 -5.383619933718811E-006
                   211 -1.406423563044058E-006
                   212  5.060645161038080E-003
                   213 -3.820920629757330E-003
                   214  4.267559915216820E-005
                   215  8.704463721961700E-005
                   216  8.545055207740280E-005
                   217  4.370318322998650E-003
                   218 -2.552720801587130E-003
                   219  2.913103650958790E-004
                   220  1.748723682497020E-004
                   221 -4.113228330435890E-004
                   222 -6.952207821431790E-004
                   223  8.040259775079680E-005
                   224 -3.879614739733620E-005
                   225  8.623202854026361E-006
                   226 -2.004257262573500E-005
                   227 -7.805742379945790E-004
                   228  1.267472906583490E-004
                   229 -9.281822397704580E-005
                   230  9.199142587750780E-006
                   231 -5.518130136027640E-006
                   232 -2.425174771494470E-004
                   233 -2.964422332233600E-004
                   234  3.724284159796530E-006
                   235 -1.961931375242780E-006
                   236 -6.971713640856620E-006
                   237 -1.500240362851060E-004
                   238 -3.847908441451910E-004
                   239  3.961299884481280E-006
                   240 -8.790842605908090E-007
                   241  6.423052936950340E-006
                   242  9.152080335987451E-005
                   243 -4.362502943244260E-005
                   244  1.395922344006770E-005
                   245  1.012415603672500E-006
                   246  3.362574897596690E-006
 Sym= __2_a__
 Ene=  0.000000000000000E+000
 Spin= Alpha
 Occup=    2.00000000000000     
                     1 -2.492247250566190E-005
                     2 -1.361783095196060E-004
                     3  1.384517221945750E-003
                     4  1.348745745802760E-005
                     5  1.566167280145190E-003
                     6  2.326842108866980E-003
                     7  3.201518893904890E-004
                     8  5.102782116618160E-005
                     9 -1.116843784744030E-004
                    10  6.692991252776199E-005
                    11  3.536235942541950E-005
                    12  1.712881150604110E-005
                    13  4.706599274366800E-005
                    14  1.425787105237220E-005
                    15 -7.497961917489421E-005
                    16 -1.013432545091060E-005
                    17 -6.689615308389240E-006
                    18  1.657516399259308E-005
                    19 -1.009041285607360E-005
                    20  4.056918943927336E-004
                    21 -1.251170999718270E-004
                    22 -2.060397093794700E-005
                    23 -2.797665003978520E-006
                    24 -7.791817548608659E-005
                    25  1.881409183158603E-005
                    26  1.408440450791006E-004
                    27 -5.108448626163802E-005
                    28  1.195959122854396E-005
                    29  2.369696080658890E-005
                    30  1.442858678839623E-004
                    31  3.111580564498195E-005
                    32   1.00099885334403     
                    33  8.958709170667160E-003
                    34  2.782538763413490E-003
                    35 -8.072585989770620E-003
                    36 -3.088979285164760E-003
                    37  4.509051702710490E-004
                    38  2.136968808198120E-005
                    39  1.232975665784270E-003
                    40 -1.412886700097440E-004
                    41 -7.066362062363920E-005
                    42  3.929237313374880E-003
                    43 -9.996198878303070E-005
                    44 -1.151382519090710E-004
                    45  2.748708730861115E-004
                    46  1.884047569581990E-005
                    47 -3.062833001219600E-006
                    48  4.879873718603080E-004
                    49 -6.237347985742770E-006
                    50 -1.078798257586948E-003
                    51 -1.638951647614030E-004
                    52  1.908367082298280E-005
                    53 -1.123755462922408E-004
                    54 -1.877381768349370E-005
                    55 -6.908852072201033E-006
                    56  3.612449334988351E-004
                    57 -6.764606413669944E-006
                    58 -8.411377660004721E-006
                    59  2.165271100074650E-006
                    60  9.800361450337935E-005
                    61  1.060788580157157E-005
                    62  1.055095063307190E-002
                    63 -1.989570741605370E-003
                    64 -2.845504160141160E-004
                    65  3.085202777291650E-003
                    66 -1.353800902170270E-004
                    67  6.901363355363321E-005
                    68  2.432849422635430E-004
                    69  3.233363212938320E-005
                    70  1.313548367522610E-005
                    71  4.429668628553780E-004
                    72  2.381855656678900E-004
                    73  6.987495347085870E-006
                    74 -2.027064260283530E-003
                    75 -1.803820204332318E-005
                    76  2.980607604837870E-005
                    77  4.665326560445570E-006
                    78 -3.855202325581240E-005
                    79 -3.571271728911010E-006
                    80 -4.699167598651203E-004
                    81 -4.456292436405050E-004
                    82  1.791159776990720E-005
                    83  7.785198100088380E-004
                    84 -3.256707232649350E-006
                    85  6.012174240981225E-005
                    86  1.233342316448439E-004
                    87  3.810355976315924E-006
                    88 -5.347970319183040E-006
                    89 -5.200845537392700E-006
                    90 -2.126632867768420E-005
                    91  2.905385930257199E-006
                    92  1.088454030738210E-002
                    93 -1.986540848564220E-003
                    94 -3.186599217989670E-004
                    95  3.306998419933810E-003
                    96 -1.553285079081270E-004
                    97  7.569262289150790E-005
                    98 -2.279006795093710E-004
                    99  2.427475254073370E-005
                   100  6.890149780995010E-006
                   101 -5.990160304604690E-004
                   102  6.675025548685811E-005
                   103 -1.216510009835450E-005
                   104  1.922533028161750E-003
                   105 -1.423657683822750E-005
                   106 -2.424464171519530E-005
                   107 -3.757156215172140E-006
                   108 -3.528734270981960E-005
                   109 -3.335682875466950E-006
                   110 -3.991071817457124E-004
                   111  4.433562542122280E-004
                   112 -9.741273615769660E-006
                   113  7.428285696643360E-004
                   114  6.183859386061370E-007
                   115 -5.075632104680170E-005
                   116  1.162550857741224E-004
                   117  5.175960612554508E-007
                   118  1.539449417261802E-005
                   119  1.369478732256400E-006
                   120 -2.884175111408659E-005
                   121  2.851085548513790E-006
                   122 -2.002135417334900E-004
                   123 -7.761770113377230E-004
                   124  2.444931366786220E-004
                   125 -2.529208095769970E-004
                   126 -1.888868746353470E-004
                   127  1.594239906106750E-005
                   128 -4.340772097668500E-005
                   129  5.937171029354130E-004
                   130 -7.281693953785870E-006
                   131  4.342378633826570E-005
                   132  7.286373670640850E-004
                   133 -1.057132958698820E-005
                   134  3.829458568837700E-004
                   135 -2.148547368273276E-006
                   136  4.349996206580190E-005
                   137  3.229162464065720E-007
                   138 -2.888099692013420E-005
                   139 -9.788114706354940E-007
                   140  2.015268603559641E-004
                   141 -2.483242976575640E-004
                   142 -2.505822276143010E-006
                   143 -2.652104755795840E-004
                   144  3.143142542501680E-006
                   145 -2.151061571594001E-005
                   146  1.951053045595023E-005
                   147  6.019693394335084E-008
                   148 -1.741121356650440E-005
                   149 -4.683634308814750E-007
                   150 -2.214948724120430E-005
                   151 -1.047262662987104E-006
                   152 -1.868111196289390E-004
                   153 -7.495432519476450E-004
                   154  2.544969068210510E-004
                   155 -2.825467166464600E-004
                   156 -1.918110471588790E-004
                   157  1.398058250709760E-005
                   158  3.615971942707890E-005
                   159  5.919971702598440E-004
                   160 -5.388413268465970E-006