[Molden Format]
[Atoms] AU
  N     1    7     0.0003703600   -0.0004228000   -4.2987647100        
  C     2    6     0.0004607600   -0.0008035400   -1.7741563100        
  C     3    6     0.0365476400   -2.3378831100   -0.4120018100        
  C     4    6    -0.0355285500    2.3358650700   -0.4112943800        
  C     5    6     0.0578665900   -2.2999682400    2.1648177600        
  C     6    6    -0.0566629200    2.2971729800    2.1655151600        
  C     7    6     0.0006487200   -0.0015950700    3.4742975800        
  H     8    1    -0.5546114000   -1.5612341500   -5.3161348400        
  H     9    1     0.5552792800    1.5606953500   -5.3157037600        
  H    10    1     0.0914741300   -4.0713627200   -1.4476229200        
  H    11    1    -0.0905291900    4.0696569600   -1.4463886400        
  H    12    1     0.1225815700   -4.0408718700    3.1974208600        
  H    13    1    -0.1213039100    4.0377650700    3.1986479300        
  H    14    1     0.0007212900   -0.0019007300    5.5010979700        
[5D]
[7F]
[GTO]
  1  0
   s    12 1.00
  0.114200D+05  0.172695D-04
  0.171200D+04  0.134411D-03
  0.389300D+03  0.694561D-03
  0.110000D+03  0.278531D-02
  0.355700D+02  0.863457D-02
  0.125400D+02  0.199805D-01
  0.464400D+01  0.262908D-01
  0.129300D+01 -0.243845D-01
  0.511800D+00 -0.924934D-01
  0.178700D+00 -0.339683D+00
  0.246240D-01  0.345111D+00
  0.112530D-01  0.752750D+00
   s    10 1.00
  0.114200D+05  0.523000D-03
  0.171200D+04  0.404500D-02
  0.389300D+03  0.207750D-01
  0.110000D+03  0.807269D-01
  0.355700D+02  0.233074D+00
  0.125400D+02  0.433501D+00
  0.464400D+01  0.347472D+00
  0.129300D+01  0.412620D-01
  0.511800D+00 -0.850799D-02
  0.178700D+00  0.238400D-02
   s    10 1.00
  0.114200D+05 -0.115000D-03
  0.171200D+04 -0.895000D-03
  0.389300D+03 -0.462400D-02
  0.110000D+03 -0.185280D-01
  0.355700D+02 -0.573390D-01
  0.125400D+02 -0.132076D+00
  0.464400D+01 -0.172510D+00
  0.129300D+01  0.151814D+00
  0.511800D+00  0.599944D+00
  0.178700D+00  0.387462D+00
   s     1 1.00
  0.129300D+01  0.100000D+01
   s     1 1.00
  0.178700D+00  0.100000D+01
   p     5 1.00
  0.266300D+02  0.146700D-01
  0.594800D+01  0.917640D-01
  0.174200D+01  0.298683D+00
  0.555000D+00  0.498487D+00
  0.172500D+00  0.337023D+00
   p     1 1.00
  0.174200D+01  0.100000D+01
   p     1 1.00
  0.555000D+00  0.100000D+01
   d     1 1.00
  0.165400D+01  0.100000D+01
   d     1 1.00
  0.469000D+00  0.100000D+01
   f     1 1.00
  0.109300D+01  0.100000D+01
  
  2  0
   s    10 1.00
  0.823600D+04  0.531000D-03
  0.123500D+04  0.410800D-02
  0.280800D+03  0.210870D-01
  0.792700D+02  0.818530D-01
  0.255900D+02  0.234817D+00
  0.899700D+01  0.434401D+00
  0.331900D+01  0.346129D+00
  0.905900D+00  0.393780D-01
  0.364300D+00 -0.898300D-02
  0.128500D+00  0.238500D-02
   s    10 1.00
  0.823600D+04 -0.113000D-03
  0.123500D+04 -0.878000D-03
  0.280800D+03 -0.454000D-02
  0.792700D+02 -0.181330D-01
  0.255900D+02 -0.557600D-01
  0.899700D+01 -0.126895D+00
  0.331900D+01 -0.170352D+00
  0.905900D+00  0.140382D+00
  0.364300D+00  0.598684D+00
  0.128500D+00  0.395389D+00
   s     1 1.00
  0.905900D+00  0.100000D+01
   s     1 1.00
  0.364300D+00  0.100000D+01
   p     5 1.00
  0.187100D+02  0.140310D-01
  0.413300D+01  0.868660D-01
  0.120000D+01  0.290216D+00
  0.382700D+00  0.501008D+00
  0.120900D+00  0.343406D+00
   p     1 1.00
  0.382700D+00  0.100000D+01
   p     1 1.00
  0.120900D+00  0.100000D+01
   d     1 1.00
  0.109700D+01  0.100000D+01
   d     1 1.00
  0.318000D+00  0.100000D+01
   f     1 1.00
  0.761000D+00  0.100000D+01
  
  3  0
   s    10 1.00
  0.823600D+04  0.531000D-03
  0.123500D+04  0.410800D-02
  0.280800D+03  0.210870D-01
  0.792700D+02  0.818530D-01
  0.255900D+02  0.234817D+00
  0.899700D+01  0.434401D+00
  0.331900D+01  0.346129D+00
  0.905900D+00  0.393780D-01
  0.364300D+00 -0.898300D-02
  0.128500D+00  0.238500D-02
   s    10 1.00
  0.823600D+04 -0.113000D-03
  0.123500D+04 -0.878000D-03
  0.280800D+03 -0.454000D-02
  0.792700D+02 -0.181330D-01
  0.255900D+02 -0.557600D-01
  0.899700D+01 -0.126895D+00
  0.331900D+01 -0.170352D+00
  0.905900D+00  0.140382D+00
  0.364300D+00  0.598684D+00
  0.128500D+00  0.395389D+00
   s     1 1.00
  0.905900D+00  0.100000D+01
   s     1 1.00
  0.364300D+00  0.100000D+01
   p     5 1.00
  0.187100D+02  0.140310D-01
  0.413300D+01  0.868660D-01
  0.120000D+01  0.290216D+00
  0.382700D+00  0.501008D+00
  0.120900D+00  0.343406D+00
   p     1 1.00
  0.382700D+00  0.100000D+01
   p     1 1.00
  0.120900D+00  0.100000D+01
   d     1 1.00
  0.109700D+01  0.100000D+01
   d     1 1.00
  0.318000D+00  0.100000D+01
   f     1 1.00
  0.761000D+00  0.100000D+01
  
  4  0
   s    10 1.00
  0.823600D+04  0.531000D-03
  0.123500D+04  0.410800D-02
  0.280800D+03  0.210870D-01
  0.792700D+02  0.818530D-01
  0.255900D+02  0.234817D+00
  0.899700D+01  0.434401D+00
  0.331900D+01  0.346129D+00
  0.905900D+00  0.393780D-01
  0.364300D+00 -0.898300D-02
  0.128500D+00  0.238500D-02
   s    10 1.00
  0.823600D+04 -0.113000D-03
  0.123500D+04 -0.878000D-03
  0.280800D+03 -0.454000D-02
  0.792700D+02 -0.181330D-01
  0.255900D+02 -0.557600D-01
  0.899700D+01 -0.126895D+00
  0.331900D+01 -0.170352D+00
  0.905900D+00  0.140382D+00
  0.364300D+00  0.598684D+00
  0.128500D+00  0.395389D+00
   s     1 1.00
  0.905900D+00  0.100000D+01
   s     1 1.00
  0.364300D+00  0.100000D+01
   p     5 1.00
  0.187100D+02  0.140310D-01
  0.413300D+01  0.868660D-01
  0.120000D+01  0.290216D+00
  0.382700D+00  0.501008D+00
  0.120900D+00  0.343406D+00
   p     1 1.00
  0.382700D+00  0.100000D+01
   p     1 1.00
  0.120900D+00  0.100000D+01
   d     1 1.00
  0.109700D+01  0.100000D+01
   d     1 1.00
  0.318000D+00  0.100000D+01
   f     1 1.00
  0.761000D+00  0.100000D+01
  
  5  0
   s    10 1.00
  0.823600D+04  0.531000D-03
  0.123500D+04  0.410800D-02
  0.280800D+03  0.210870D-01
  0.792700D+02  0.818530D-01
  0.255900D+02  0.234817D+00
  0.899700D+01  0.434401D+00
  0.331900D+01  0.346129D+00
  0.905900D+00  0.393780D-01
  0.364300D+00 -0.898300D-02
  0.128500D+00  0.238500D-02
   s    10 1.00
  0.823600D+04 -0.113000D-03
  0.123500D+04 -0.878000D-03
  0.280800D+03 -0.454000D-02
  0.792700D+02 -0.181330D-01
  0.255900D+02 -0.557600D-01
  0.899700D+01 -0.126895D+00
  0.331900D+01 -0.170352D+00
  0.905900D+00  0.140382D+00
  0.364300D+00  0.598684D+00
  0.128500D+00  0.395389D+00
   s     1 1.00
  0.905900D+00  0.100000D+01
   s     1 1.00
  0.364300D+00  0.100000D+01
   p     5 1.00
  0.187100D+02  0.140310D-01
  0.413300D+01  0.868660D-01
  0.120000D+01  0.290216D+00
  0.382700D+00  0.501008D+00
  0.120900D+00  0.343406D+00
   p     1 1.00
  0.382700D+00  0.100000D+01
   p     1 1.00
  0.120900D+00  0.100000D+01
   d     1 1.00
  0.109700D+01  0.100000D+01
   d     1 1.00
  0.318000D+00  0.100000D+01
   f     1 1.00
  0.761000D+00  0.100000D+01
  
  6  0
   s    10 1.00
  0.823600D+04  0.531000D-03
  0.123500D+04  0.410800D-02
  0.280800D+03  0.210870D-01
  0.792700D+02  0.818530D-01
  0.255900D+02  0.234817D+00
  0.899700D+01  0.434401D+00
  0.331900D+01  0.346129D+00
  0.905900D+00  0.393780D-01
  0.364300D+00 -0.898300D-02
  0.128500D+00  0.238500D-02
   s    10 1.00
  0.823600D+04 -0.113000D-03
  0.123500D+04 -0.878000D-03
  0.280800D+03 -0.454000D-02
  0.792700D+02 -0.181330D-01
  0.255900D+02 -0.557600D-01
  0.899700D+01 -0.126895D+00
  0.331900D+01 -0.170352D+00
  0.905900D+00  0.140382D+00
  0.364300D+00  0.598684D+00
  0.128500D+00  0.395389D+00
   s     1 1.00
  0.905900D+00  0.100000D+01
   s     1 1.00
  0.364300D+00  0.100000D+01
   p     5 1.00
  0.187100D+02  0.140310D-01
  0.413300D+01  0.868660D-01
  0.120000D+01  0.290216D+00
  0.382700D+00  0.501008D+00
  0.120900D+00  0.343406D+00
   p     1 1.00
  0.382700D+00  0.100000D+01
   p     1 1.00
  0.120900D+00  0.100000D+01
   d     1 1.00
  0.109700D+01  0.100000D+01
   d     1 1.00
  0.318000D+00  0.100000D+01
   f     1 1.00
  0.761000D+00  0.100000D+01
  
  7  0
   s    10 1.00
  0.823600D+04  0.531000D-03
  0.123500D+04  0.410800D-02
  0.280800D+03  0.210870D-01
  0.792700D+02  0.818530D-01
  0.255900D+02  0.234817D+00
  0.899700D+01  0.434401D+00
  0.331900D+01  0.346129D+00
  0.905900D+00  0.393780D-01
  0.364300D+00 -0.898300D-02
  0.128500D+00  0.238500D-02
   s    10 1.00
  0.823600D+04 -0.113000D-03
  0.123500D+04 -0.878000D-03
  0.280800D+03 -0.454000D-02
  0.792700D+02 -0.181330D-01
  0.255900D+02 -0.557600D-01
  0.899700D+01 -0.126895D+00
  0.331900D+01 -0.170352D+00
  0.905900D+00  0.140382D+00
  0.364300D+00  0.598684D+00
  0.128500D+00  0.395389D+00
   s     1 1.00
  0.905900D+00  0.100000D+01
   s     1 1.00
  0.364300D+00  0.100000D+01
   p     5 1.00
  0.187100D+02  0.140310D-01
  0.413300D+01  0.868660D-01
  0.120000D+01  0.290216D+00
  0.382700D+00  0.501008D+00
  0.120900D+00  0.343406D+00
   p     1 1.00
  0.382700D+00  0.100000D+01
   p     1 1.00
  0.120900D+00  0.100000D+01
   d     1 1.00
  0.109700D+01  0.100000D+01
   d     1 1.00
  0.318000D+00  0.100000D+01
   f     1 1.00
  0.761000D+00  0.100000D+01
  
  8  0
   s     4 1.00
  0.130100D+02  0.196850D-01
  0.196200D+01  0.137977D+00
  0.444600D+00  0.478148D+00
  0.122000D+00  0.501240D+00
   s     1 1.00
  0.122000D+00  0.100000D+01
   p     1 1.00
  0.727000D+00  0.100000D+01
  
  9  0
   s     4 1.00
  0.130100D+02  0.196850D-01
  0.196200D+01  0.137977D+00
  0.444600D+00  0.478148D+00
  0.122000D+00  0.501240D+00
   s     1 1.00
  0.122000D+00  0.100000D+01
   p     1 1.00
  0.727000D+00  0.100000D+01
  
 10  0
   s     4 1.00
  0.130100D+02  0.196850D-01
  0.196200D+01  0.137977D+00
  0.444600D+00  0.478148D+00
  0.122000D+00  0.501240D+00
   s     1 1.00
  0.122000D+00  0.100000D+01
   p     1 1.00
  0.727000D+00  0.100000D+01
  
 11  0
   s     4 1.00
  0.130100D+02  0.196850D-01
  0.196200D+01  0.137977D+00
  0.444600D+00  0.478148D+00
  0.122000D+00  0.501240D+00
   s     1 1.00
  0.122000D+00  0.100000D+01
   p     1 1.00
  0.727000D+00  0.100000D+01
  
 12  0
   s     4 1.00
  0.130100D+02  0.196850D-01
  0.196200D+01  0.137977D+00
  0.444600D+00  0.478148D+00
  0.122000D+00  0.501240D+00
   s     1 1.00
  0.122000D+00  0.100000D+01
   p     1 1.00
  0.727000D+00  0.100000D+01
  
 13  0
   s     4 1.00
  0.130100D+02  0.196850D-01
  0.196200D+01  0.137977D+00
  0.444600D+00  0.478148D+00
  0.122000D+00  0.501240D+00
   s     1 1.00
  0.122000D+00  0.100000D+01
   p     1 1.00
  0.727000D+00  0.100000D+01
  
 14  0
   s     4 1.00
  0.130100D+02  0.196850D-01
  0.196200D+01  0.137977D+00
  0.444600D+00  0.478148D+00
  0.122000D+00  0.501240D+00
   s     1 1.00
  0.122000D+00  0.100000D+01
   p     1 1.00
  0.727000D+00  0.100000D+01
  
[MO]
 Sym= __1_A__
 Ene=  0.000000000000000E+000
 Spin= Alpha
 Occup=    2.00000000000000     
                     1  4.302629797781112E-005
                     2  0.998050469791782     
                     3  9.143308022074118E-003
                     4  2.070593278003468E-003
                     5  1.588817735818531E-003
                     6  1.628593161312291E-007
                     7 -6.815277062443544E-007
                     8  4.450275469515287E-003
                     9 -7.115315460510646E-009
                    10  3.117825309899590E-008
                    11 -1.367202146620587E-004
                    12 -8.261398614422045E-009
                    13 -7.133399304611490E-009
                    14 -1.635663990320181E-004
                    15  2.556281261596558E-004
                    16  2.810248197565127E-008
                    17 -5.413057682055060E-008
                    18 -9.382530717015736E-005
                    19  5.584322812920531E-005
                    20  1.486418766756448E-004
                    21 -5.730804556415255E-008
                    22 -1.218868568652758E-007
                    23  4.571615711178996E-004
                    24 -3.139808019933263E-004
                    25 -1.874323711875435E-004
                    26  3.995584490634483E-009
                    27 -8.529681163236429E-008
                    28  7.870013779956524E-005
                    29 -3.403454231177109E-005
                    30  3.191038833392346E-009
                    31 -1.731577946738273E-008
                    32 -3.392171167321377E-004
                    33  2.726455258010117E-003
                    34  1.461860772174938E-004
                    35 -2.988830034247077E-004
                    36 -2.547573787861555E-007
                    37  1.071616493885027E-006
                    38 -6.984611852154348E-003
                    39  1.599207191754137E-008
                    40 -9.750097863476183E-008
                    41  3.113150852832915E-004
                    42  1.525133270364359E-007
                    43 -6.191457609995330E-007
                    44  4.370503955149561E-003
                    45  3.470688540896687E-004
                    46  1.545738990641539E-008
                    47 -1.003883915283589E-007
                    48  1.311397524539192E-004
                    49 -9.662260485511038E-006
                    50  1.330839336449582E-004
                    51  3.376931327509434E-008
                    52 -1.234929815951522E-007
                    53 -3.756644012515726E-004
                    54  7.967018492203282E-005
                    55 -1.069762402240981E-004
                    56  2.033586195981194E-009
                    57 -5.825719989416542E-008
                    58  7.232650730812210E-005
                    59 -1.552547798445712E-005
                    60 -3.412111887895214E-010
                    61 -1.776602123517989E-008
                    62 -2.093923624288092E-004
                    63 -1.667350620665577E-003
                    64  4.848686142425551E-005
                    65  6.026573671527125E-004
                    66 -1.818160868106801E-005
                    67 -8.393904792947009E-004
                    68  1.011396322984151E-003
                    69  3.937871444515313E-005
                    70 -1.385393398350275E-005
                    71  5.605180365806429E-004
                    72  2.254530333548576E-005
                    73 -6.038684898452547E-004
                    74 -1.568978826345593E-004
                    75  9.083042046669472E-005
                    76  2.115412918677701E-006
                    77 -9.508561904384839E-006
                    78  3.923014388105022E-005
                    79 -3.201894158401619E-007
                    80 -4.754819353943880E-006
                    81 -2.740704692630476E-005
                    82  1.775464120848244E-004
                    83 -2.152599913156558E-005
                    84  2.327522567420325E-005
                    85 -9.130170372418653E-005
                    86  2.925071391925042E-006
                    87 -2.566171475824244E-005
                    88  2.080195941524958E-005
                    89 -5.528414080178488E-006
                    90  1.441555604772210E-006
                    91  1.445766163882629E-005
                    92 -2.093559905527015E-004
                    93 -1.667204373198052E-003
                    94  4.865296432148228E-005
                    95  6.021093939724345E-004
                    96  1.825236193458066E-005
                    97  8.391046423490611E-004
                    98  1.011756891150360E-003
                    99 -3.933329432355636E-005
                   100  1.354431090766819E-005
                   101  5.598916661262083E-004
                   102 -2.253894974599873E-005
                   103  6.033382436363168E-004
                   104 -1.565566696348834E-004
                   105  9.080282338204289E-005
                   106 -2.106789057070987E-006
                   107  9.466297018421652E-006
                   108  3.923488176361876E-005
                   109 -3.189302474645039E-007
                   110 -5.294005304166548E-006
                   111  2.741971041919534E-005
                   112 -1.776462499029370E-004
                   113 -2.166730789466474E-005
                   114  2.325241836622483E-005
                   115 -9.125351545943665E-005
                   116 -2.913670036860334E-006
                   117  2.558686360882736E-005
                   118  2.080401745266382E-005
                   119 -5.523848525198932E-006
                   120 -1.441656857612072E-006
                   121 -1.446505088310093E-005
                   122 -1.497684504219130E-004
                   123 -5.017254864840391E-006
                   124  1.080611966601748E-004
                   125  1.400541911512273E-004
                   126 -2.229084790643135E-005
                   127  4.126531337368842E-005
                   128 -7.874111022174673E-004
                   129  1.184065022275760E-006
                   130  2.219956751012202E-005
                   131  3.358932474835009E-004
                   132  1.394697290135823E-005
                   133 -1.489716374955242E-004
                   134  6.956729947543239E-004
                   135 -1.598645218186730E-005
                   136  1.568807220581662E-006
                   137  2.138377316160104E-006
                   138  9.852219482953675E-007
                   139  1.223224675866632E-006
                   140 -1.837418079515608E-004
                   141 -1.433952432771808E-005
                   142  1.589445151668677E-004
                   143  1.537521275944988E-005
                   144 -7.073435739790699E-006
                   145 -3.770859190038333E-005
                   146  4.261274426520334E-007
                   147  5.708939654013218E-007
                   148 -9.154716820162046E-006
                   149 -1.145949580328798E-006
                   150 -5.903736931904457E-007
                   151 -3.360682113602351E-006
                   152 -1.502452278329755E-004
                   153 -6.701674475296779E-006
                   154  1.075813860030096E-004
                   155  1.430838467687895E-004
                   156  2.222724741721109E-005
                   157 -4.097174520703203E-005
                   158 -7.873937624822603E-004
                   159 -1.138764435936743E-006
                   160 -2.265489127860828E-005
                   161  3.355263353055888E-004
                   162 -1.391518649165117E-005
                   163  1.493135458157285E-004
                   164  6.958881168647547E-004
                   165 -1.593308486012252E-005
                   166 -1.571463157900845E-006
                   167 -2.138099586170168E-006
                   168  9.327119386338388E-007
                   169  1.220340753894988E-006
                   170 -1.836906593287430E-004
                   171  1.431439788842151E-005
                   172 -1.591100950084444E-004
                   173  1.528407532187487E-005
                   174 -7.088659251771197E-006
                   175 -3.762081169694175E-005
                   176 -4.170188641840827E-007
                   177 -5.865974577804703E-007
                   178 -9.204915133458879E-006
                   179 -1.148395620447972E-006
                   180  5.915816277749958E-007
                   181  3.373298882782605E-006
                   182 -1.247567265493771E-004
                   183 -3.351384420286088E-004
                   184  3.142598636485896E-005
                   185  1.628649442387338E-004
                   186 -7.214214799849095E-009
                   187  9.295308914945251E-008
                   188 -4.265271578848501E-005
                   189  1.639527674913414E-008
                   190 -4.342061162524315E-007
                   191  1.738552090366374E-005
                   192  4.112600311599063E-009
                   193 -4.372949929453802E-008
                   194  3.484581711117495E-005
                   195  1.881789320554764E-005
                   196  1.347139446777849E-010
                   197  1.764947903305608E-008
                   198  8.633724357330145E-006
                   199  5.738141516592141E-007
                   200  5.640290701249261E-005
                   201 -3.704906730598930E-009
                   202  1.889343510576729E-007
                   203  4.560192059965586E-005
                   204 -5.188675963330295E-006
                   205 -1.169522334137798E-005
                   206  1.577202483075205E-009
                   207 -1.324201586646040E-008
                   208  3.311818166081874E-006
                   209  1.487799234292639E-006
                   210  1.637024278755816E-009
                   211  2.662109992945413E-008
                   212  3.853953272329622E-003
                   213 -2.320658696193903E-003
                   214  1.697902938152296E-004
                   215  4.357387014528361E-004
                   216  3.730749389895158E-004
                   217  3.853929978966110E-003
                   218 -2.320648626207811E-003
                   219 -1.697633479394842E-004
                   220 -4.358497514038330E-004
                   221  3.729582305079308E-004
                   222 -6.494790294403720E-004
                   223 -1.571997205327552E-004
                   224  1.547272608817239E-006
                   225 -1.964457081594906E-005
                   226 -4.371561941370395E-005
                   227 -6.495482209789086E-004
                   228 -1.568256911043329E-004
                   229 -1.550447263561256E-006
                   230  1.963956533387189E-005
                   231 -4.373624868019136E-005
                   232 -2.318105314052219E-004
                   233 -3.910309463652069E-004
                   234 -1.800449480335686E-006
                   235 -6.432389983308399E-006
                   236  5.057705565038217E-006
                   237 -2.318500763812333E-004
                   238 -3.911926049591095E-004
                   239  1.798781831469748E-006
                   240  6.477180808887460E-006
                   241  5.106641418793358E-006
                   242  6.861313531773269E-005
                   243 -1.162441562907634E-004
                   244  4.881268418535434E-010
                   245 -2.332963624046436E-008
                   246  1.473040884202585E-005
 Sym= __2_A__
 Ene=  0.000000000000000E+000
 Spin= Alpha
 Occup=    2.00000000000000     
                     1 -4.215678004081141E-005
                     2 -1.986150236862532E-004
                     3  2.251156788509257E-003
                     4  9.640772936680335E-005
                     5  1.263468896183342E-003
                     6  1.024827763498977E-007
                     7 -4.333301755553509E-007
                     8  2.903146052653789E-003
                     9 -1.411619900025856E-009
                    10  4.981134199501877E-009
                    11 -5.800637852709361E-005
                    12 -1.433614341679502E-008
                    13  7.726631434155942E-008
                    14 -4.712406016413032E-004
                    15  4.354234691013598E-005
                    16 -2.655000865840826E-009
                    17 -1.872010301189066E-008
                    18  5.651358439320246E-005
                    19 -2.057375152117167E-005
                    20 -2.593439217815633E-004
                    21  1.187818502688867E-008
                    22  1.046019873465111E-007
                    23 -2.773189103821236E-004
                    24  1.144005283672207E-004
                    25  1.844690386641348E-004
                    26 -2.060208720649371E-008
                    27  7.235935309315595E-008
                    28 -1.039402528969584E-005
                    29 -2.440906157588353E-005
                    30  5.155115193707466E-009
                    31  1.553944079431790E-009
                    32   1.00105692264421     
                    33  9.224195160633249E-003
                    34  2.625715094902819E-003
                    35 -7.769617384343678E-003
                    36 -1.448648549488327E-007
                    37  6.045208613278264E-007
                    38 -4.040541882344552E-003
                    39  3.738982142500937E-008
                    40 -1.581914404732077E-007
                    41  1.051740204653147E-003
                    42  1.593701911738353E-007
                    43 -7.260700465920768E-007
                    44  4.364913232180191E-003
                    45  4.551828959999687E-004
                    46  4.557344868530892E-008
                    47 -5.811899325909788E-008
                    48 -4.237685960074746E-004
                    49  1.392601582626132E-005
                    50  5.332788981918841E-004
                    51 -1.618358127654874E-009
                    52 -2.663342864321973E-007
                    53  9.041539446106296E-004
                    54 -2.137237785455341E-005
                    55  3.761528151075379E-004
                    56 -1.967286228242402E-008
                    57  1.852305638351465E-007
                    58 -2.014503854033352E-004
                    59  1.033971476718752E-005
                    60  7.039028940822155E-009
                    61  3.929057596427565E-008
                    62  7.600657971282338E-003
                    63 -2.029312157441783E-003
                    64 -2.734490307975571E-004
                    65  3.010492206448550E-003
                    66  6.522402258993108E-006
                    67  1.089964175667703E-004
                    68 -2.390120709616889E-005
                    69 -2.954719840591693E-005
                    70  5.848173380557703E-004
                    71  4.140659413992335E-005
                    72  5.259532273873053E-005
                    73 -2.056507263675250E-003
                    74  9.542716892964112E-005
                    75 -1.585601559600934E-005
                    76  1.028052699917766E-006
                    77  1.496028871002245E-005
                    78  2.928331361260912E-005
                    79  1.736796023430606E-006
                    80  7.594579085071488E-004
                    81  2.244912739615076E-005
                    82 -4.197447302798580E-004
                    83 -1.485247337913772E-005
                    84 -1.449658074293727E-005
                    85  7.076201817755523E-005
                    86 -6.072878547824209E-007
                    87  4.308512824060284E-005
                    88 -1.253399456035573E-004
                    89  1.317553801805794E-006
                    90  1.514667046604045E-006
                    91  4.984121946765598E-005
                    92  7.600631689850260E-003
                    93 -2.029395708737153E-003
                    94 -2.734903880951988E-004
                    95  3.010688356705057E-003
                    96 -6.523504938151491E-006
                    97 -1.089898133384606E-004
                    98 -2.395593476802516E-005
                    99  2.954902370650965E-005
                   100 -5.848304756147791E-004
                   101  4.135388974428959E-005
                   102 -5.259323221010756E-005
                   103  2.056600252743967E-003
                   104  9.589677412250154E-005
                   105 -1.585005157109742E-005
                   106 -1.031728754054746E-006
                   107 -1.496690924695558E-005
                   108  2.927716991600074E-005
                   109  1.736077996430481E-006
                   110  7.597382152363490E-004
                   111 -2.235983548212780E-005
                   112  4.194004198766931E-004
                   113 -1.470941010757005E-005
                   114 -1.445917505782544E-005
                   115  7.078103829096107E-005
                   116  6.093159891876960E-007
                   117 -4.297037924971595E-005
                   118 -1.253766425267274E-004
                   119  1.316257799020220E-006
                   120 -1.503910632761885E-006
                   121 -4.979321072590259E-005
                   122 -2.266453085488798E-004
                   123 -7.513234272741210E-004
                   124  2.246668840601693E-004
                   125 -1.185530672576366E-004
                   126 -3.996116448440542E-006
                   127 -2.078683225657149E-005
                   128 -2.485389315435058E-004
                   129  7.664654069912716E-006
                   130 -4.030080833511250E-006
                   131  5.401430286946101E-004
                   132 -1.005846163279546E-005
                   133  3.189090940473487E-004
                   134  7.414447986565494E-004
                   135 -1.497736537167375E-005
                   136 -2.154853512269264E-006
                   137  5.121407141320118E-005
                   138  1.414628871692043E-005
                   139  1.321319354584647E-006
                   140 -2.930825278926126E-004
                   141  3.934114828856693E-006
                   142 -2.214074805062515E-004
                   143 -1.530693089855275E-005
                   144 -5.269852706820868E-006
                   145 -2.027378542933853E-008
                   146  2.106016449077402E-006
                   147 -3.916282012073305E-005
                   148 -3.876125152853944E-005
                   149 -2.111154411647510E-006
                   150  7.561925422968735E-007
                   151 -5.947117943944126E-006
                   152 -2.263622700893659E-004
                   153 -7.503841201652571E-004
                   154  2.247256534142884E-004
                   155 -1.195361395749680E-004
                   156  3.978663600947244E-006
                   157  2.085311252630096E-005
                   158 -2.485364218054104E-004
                   159 -7.628007613850064E-006
                   160  3.907301568190566E-006