[Molden Format]
[Atoms] AU
  N     1    7     0.0003703600   -0.0004228000   -4.2987647100        
  C     2    6     0.0004607600   -0.0008035400   -1.7741563100        
  C     3    6     0.0365476400   -2.3378831100   -0.4120018100        
  C     4    6    -0.0355285500    2.3358650700   -0.4112943800        
  C     5    6     0.0578665900   -2.2999682400    2.1648177600        
  C     6    6    -0.0566629200    2.2971729800    2.1655151600        
  C     7    6     0.0006487200   -0.0015950700    3.4742975800        
  H     8    1    -0.5546114000   -1.5612341500   -5.3161348400        
  H     9    1     0.5552792800    1.5606953500   -5.3157037600        
  H    10    1     0.0914741300   -4.0713627200   -1.4476229200        
  H    11    1    -0.0905291900    4.0696569600   -1.4463886400        
  H    12    1     0.1225815700   -4.0408718700    3.1974208600        
  H    13    1    -0.1213039100    4.0377650700    3.1986479300        
  H    14    1     0.0007212900   -0.0019007300    5.5010979700        
[5D]
[7F]
[GTO]
  1  0
   s    12 1.00
  0.114200D+05  0.172695D-04
  0.171200D+04  0.134411D-03
  0.389300D+03  0.694561D-03
  0.110000D+03  0.278531D-02
  0.355700D+02  0.863457D-02
  0.125400D+02  0.199805D-01
  0.464400D+01  0.262908D-01
  0.129300D+01 -0.243845D-01
  0.511800D+00 -0.924934D-01
  0.178700D+00 -0.339683D+00
  0.246240D-01  0.345111D+00
  0.112530D-01  0.752750D+00
   s    10 1.00
  0.114200D+05  0.523000D-03
  0.171200D+04  0.404500D-02
  0.389300D+03  0.207750D-01
  0.110000D+03  0.807269D-01
  0.355700D+02  0.233074D+00
  0.125400D+02  0.433501D+00
  0.464400D+01  0.347472D+00
  0.129300D+01  0.412620D-01
  0.511800D+00 -0.850799D-02
  0.178700D+00  0.238400D-02
   s    10 1.00
  0.114200D+05 -0.115000D-03
  0.171200D+04 -0.895000D-03
  0.389300D+03 -0.462400D-02
  0.110000D+03 -0.185280D-01
  0.355700D+02 -0.573390D-01
  0.125400D+02 -0.132076D+00
  0.464400D+01 -0.172510D+00
  0.129300D+01  0.151814D+00
  0.511800D+00  0.599944D+00
  0.178700D+00  0.387462D+00
   s     1 1.00
  0.129300D+01  0.100000D+01
   s     1 1.00
  0.178700D+00  0.100000D+01
   p     5 1.00
  0.266300D+02  0.146700D-01
  0.594800D+01  0.917640D-01
  0.174200D+01  0.298683D+00
  0.555000D+00  0.498487D+00
  0.172500D+00  0.337023D+00
   p     1 1.00
  0.174200D+01  0.100000D+01
   p     1 1.00
  0.555000D+00  0.100000D+01
   d     1 1.00
  0.165400D+01  0.100000D+01
   d     1 1.00
  0.469000D+00  0.100000D+01
   f     1 1.00
  0.109300D+01  0.100000D+01
  
  2  0
   s    10 1.00
  0.823600D+04  0.531000D-03
  0.123500D+04  0.410800D-02
  0.280800D+03  0.210870D-01
  0.792700D+02  0.818530D-01
  0.255900D+02  0.234817D+00
  0.899700D+01  0.434401D+00
  0.331900D+01  0.346129D+00
  0.905900D+00  0.393780D-01
  0.364300D+00 -0.898300D-02
  0.128500D+00  0.238500D-02
   s    10 1.00
  0.823600D+04 -0.113000D-03
  0.123500D+04 -0.878000D-03
  0.280800D+03 -0.454000D-02
  0.792700D+02 -0.181330D-01
  0.255900D+02 -0.557600D-01
  0.899700D+01 -0.126895D+00
  0.331900D+01 -0.170352D+00
  0.905900D+00  0.140382D+00
  0.364300D+00  0.598684D+00
  0.128500D+00  0.395389D+00
   s     1 1.00
  0.905900D+00  0.100000D+01
   s     1 1.00
  0.364300D+00  0.100000D+01
   p     5 1.00
  0.187100D+02  0.140310D-01
  0.413300D+01  0.868660D-01
  0.120000D+01  0.290216D+00
  0.382700D+00  0.501008D+00
  0.120900D+00  0.343406D+00
   p     1 1.00
  0.382700D+00  0.100000D+01
   p     1 1.00
  0.120900D+00  0.100000D+01
   d     1 1.00
  0.109700D+01  0.100000D+01
   d     1 1.00
  0.318000D+00  0.100000D+01
   f     1 1.00
  0.761000D+00  0.100000D+01
  
  3  0
   s    10 1.00
  0.823600D+04  0.531000D-03
  0.123500D+04  0.410800D-02
  0.280800D+03  0.210870D-01
  0.792700D+02  0.818530D-01
  0.255900D+02  0.234817D+00
  0.899700D+01  0.434401D+00
  0.331900D+01  0.346129D+00
  0.905900D+00  0.393780D-01
  0.364300D+00 -0.898300D-02
  0.128500D+00  0.238500D-02
   s    10 1.00
  0.823600D+04 -0.113000D-03
  0.123500D+04 -0.878000D-03
  0.280800D+03 -0.454000D-02
  0.792700D+02 -0.181330D-01
  0.255900D+02 -0.557600D-01
  0.899700D+01 -0.126895D+00
  0.331900D+01 -0.170352D+00
  0.905900D+00  0.140382D+00
  0.364300D+00  0.598684D+00
  0.128500D+00  0.395389D+00
   s     1 1.00
  0.905900D+00  0.100000D+01
   s     1 1.00
  0.364300D+00  0.100000D+01
   p     5 1.00
  0.187100D+02  0.140310D-01
  0.413300D+01  0.868660D-01
  0.120000D+01  0.290216D+00
  0.382700D+00  0.501008D+00
  0.120900D+00  0.343406D+00
   p     1 1.00
  0.382700D+00  0.100000D+01
   p     1 1.00
  0.120900D+00  0.100000D+01
   d     1 1.00
  0.109700D+01  0.100000D+01
   d     1 1.00
  0.318000D+00  0.100000D+01
   f     1 1.00
  0.761000D+00  0.100000D+01
  
  4  0
   s    10 1.00
  0.823600D+04  0.531000D-03
  0.123500D+04  0.410800D-02
  0.280800D+03  0.210870D-01
  0.792700D+02  0.818530D-01
  0.255900D+02  0.234817D+00
  0.899700D+01  0.434401D+00
  0.331900D+01  0.346129D+00
  0.905900D+00  0.393780D-01
  0.364300D+00 -0.898300D-02
  0.128500D+00  0.238500D-02
   s    10 1.00
  0.823600D+04 -0.113000D-03
  0.123500D+04 -0.878000D-03
  0.280800D+03 -0.454000D-02
  0.792700D+02 -0.181330D-01
  0.255900D+02 -0.557600D-01
  0.899700D+01 -0.126895D+00
  0.331900D+01 -0.170352D+00
  0.905900D+00  0.140382D+00
  0.364300D+00  0.598684D+00
  0.128500D+00  0.395389D+00
   s     1 1.00
  0.905900D+00  0.100000D+01
   s     1 1.00
  0.364300D+00  0.100000D+01
   p     5 1.00
  0.187100D+02  0.140310D-01
  0.413300D+01  0.868660D-01
  0.120000D+01  0.290216D+00
  0.382700D+00  0.501008D+00
  0.120900D+00  0.343406D+00
   p     1 1.00
  0.382700D+00  0.100000D+01
   p     1 1.00
  0.120900D+00  0.100000D+01
   d     1 1.00
  0.109700D+01  0.100000D+01
   d     1 1.00
  0.318000D+00  0.100000D+01
   f     1 1.00
  0.761000D+00  0.100000D+01
  
  5  0
   s    10 1.00
  0.823600D+04  0.531000D-03
  0.123500D+04  0.410800D-02
  0.280800D+03  0.210870D-01
  0.792700D+02  0.818530D-01
  0.255900D+02  0.234817D+00
  0.899700D+01  0.434401D+00
  0.331900D+01  0.346129D+00
  0.905900D+00  0.393780D-01
  0.364300D+00 -0.898300D-02
  0.128500D+00  0.238500D-02
   s    10 1.00
  0.823600D+04 -0.113000D-03
  0.123500D+04 -0.878000D-03
  0.280800D+03 -0.454000D-02
  0.792700D+02 -0.181330D-01
  0.255900D+02 -0.557600D-01
  0.899700D+01 -0.126895D+00
  0.331900D+01 -0.170352D+00
  0.905900D+00  0.140382D+00
  0.364300D+00  0.598684D+00
  0.128500D+00  0.395389D+00
   s     1 1.00
  0.905900D+00  0.100000D+01
   s     1 1.00
  0.364300D+00  0.100000D+01
   p     5 1.00
  0.187100D+02  0.140310D-01
  0.413300D+01  0.868660D-01
  0.120000D+01  0.290216D+00
  0.382700D+00  0.501008D+00
  0.120900D+00  0.343406D+00
   p     1 1.00
  0.382700D+00  0.100000D+01
   p     1 1.00
  0.120900D+00  0.100000D+01
   d     1 1.00
  0.109700D+01  0.100000D+01
   d     1 1.00
  0.318000D+00  0.100000D+01
   f     1 1.00
  0.761000D+00  0.100000D+01
  
  6  0
   s    10 1.00
  0.823600D+04  0.531000D-03
  0.123500D+04  0.410800D-02
  0.280800D+03  0.210870D-01
  0.792700D+02  0.818530D-01
  0.255900D+02  0.234817D+00
  0.899700D+01  0.434401D+00
  0.331900D+01  0.346129D+00
  0.905900D+00  0.393780D-01
  0.364300D+00 -0.898300D-02
  0.128500D+00  0.238500D-02
   s    10 1.00
  0.823600D+04 -0.113000D-03
  0.123500D+04 -0.878000D-03
  0.280800D+03 -0.454000D-02
  0.792700D+02 -0.181330D-01
  0.255900D+02 -0.557600D-01
  0.899700D+01 -0.126895D+00
  0.331900D+01 -0.170352D+00
  0.905900D+00  0.140382D+00
  0.364300D+00  0.598684D+00
  0.128500D+00  0.395389D+00
   s     1 1.00
  0.905900D+00  0.100000D+01
   s     1 1.00
  0.364300D+00  0.100000D+01
   p     5 1.00
  0.187100D+02  0.140310D-01
  0.413300D+01  0.868660D-01
  0.120000D+01  0.290216D+00
  0.382700D+00  0.501008D+00
  0.120900D+00  0.343406D+00
   p     1 1.00
  0.382700D+00  0.100000D+01
   p     1 1.00
  0.120900D+00  0.100000D+01
   d     1 1.00
  0.109700D+01  0.100000D+01
   d     1 1.00
  0.318000D+00  0.100000D+01
   f     1 1.00
  0.761000D+00  0.100000D+01
  
  7  0
   s    10 1.00
  0.823600D+04  0.531000D-03
  0.123500D+04  0.410800D-02
  0.280800D+03  0.210870D-01
  0.792700D+02  0.818530D-01
  0.255900D+02  0.234817D+00
  0.899700D+01  0.434401D+00
  0.331900D+01  0.346129D+00
  0.905900D+00  0.393780D-01
  0.364300D+00 -0.898300D-02
  0.128500D+00  0.238500D-02
   s    10 1.00
  0.823600D+04 -0.113000D-03
  0.123500D+04 -0.878000D-03
  0.280800D+03 -0.454000D-02
  0.792700D+02 -0.181330D-01
  0.255900D+02 -0.557600D-01
  0.899700D+01 -0.126895D+00
  0.331900D+01 -0.170352D+00
  0.905900D+00  0.140382D+00
  0.364300D+00  0.598684D+00
  0.128500D+00  0.395389D+00
   s     1 1.00
  0.905900D+00  0.100000D+01
   s     1 1.00
  0.364300D+00  0.100000D+01
   p     5 1.00
  0.187100D+02  0.140310D-01
  0.413300D+01  0.868660D-01
  0.120000D+01  0.290216D+00
  0.382700D+00  0.501008D+00
  0.120900D+00  0.343406D+00
   p     1 1.00
  0.382700D+00  0.100000D+01
   p     1 1.00
  0.120900D+00  0.100000D+01
   d     1 1.00
  0.109700D+01  0.100000D+01
   d     1 1.00
  0.318000D+00  0.100000D+01
   f     1 1.00
  0.761000D+00  0.100000D+01
  
  8  0
   s     4 1.00
  0.130100D+02  0.196850D-01
  0.196200D+01  0.137977D+00
  0.444600D+00  0.478148D+00
  0.122000D+00  0.501240D+00
   s     1 1.00
  0.122000D+00  0.100000D+01
   p     1 1.00
  0.727000D+00  0.100000D+01
  
  9  0
   s     4 1.00
  0.130100D+02  0.196850D-01
  0.196200D+01  0.137977D+00
  0.444600D+00  0.478148D+00
  0.122000D+00  0.501240D+00
   s     1 1.00
  0.122000D+00  0.100000D+01
   p     1 1.00
  0.727000D+00  0.100000D+01
  
 10  0
   s     4 1.00
  0.130100D+02  0.196850D-01
  0.196200D+01  0.137977D+00
  0.444600D+00  0.478148D+00
  0.122000D+00  0.501240D+00
   s     1 1.00
  0.122000D+00  0.100000D+01
   p     1 1.00
  0.727000D+00  0.100000D+01
  
 11  0
   s     4 1.00
  0.130100D+02  0.196850D-01
  0.196200D+01  0.137977D+00
  0.444600D+00  0.478148D+00
  0.122000D+00  0.501240D+00
   s     1 1.00
  0.122000D+00  0.100000D+01
   p     1 1.00
  0.727000D+00  0.100000D+01
  
 12  0
   s     4 1.00
  0.130100D+02  0.196850D-01
  0.196200D+01  0.137977D+00
  0.444600D+00  0.478148D+00
  0.122000D+00  0.501240D+00
   s     1 1.00
  0.122000D+00  0.100000D+01
   p     1 1.00
  0.727000D+00  0.100000D+01
  
 13  0
   s     4 1.00
  0.130100D+02  0.196850D-01
  0.196200D+01  0.137977D+00
  0.444600D+00  0.478148D+00
  0.122000D+00  0.501240D+00
   s     1 1.00
  0.122000D+00  0.100000D+01
   p     1 1.00
  0.727000D+00  0.100000D+01
  
 14  0
   s     4 1.00
  0.130100D+02  0.196850D-01
  0.196200D+01  0.137977D+00
  0.444600D+00  0.478148D+00
  0.122000D+00  0.501240D+00
   s     1 1.00
  0.122000D+00  0.100000D+01
   p     1 1.00
  0.727000D+00  0.100000D+01
  
[MO]
 Sym= __1_A__
 Ene=   1.00000000000000     
 Spin= Alpha
 Occup=    1.00000000000000     
                     1  4.302629796827659E-005
                     2  0.998050469791928     
                     3  9.143308020861706E-003
                     4  2.070593278046549E-003
                     5  1.588817737715762E-003
                     6  1.628593485022572E-007
                     7 -6.815276665005394E-007
                     8  4.450275469208103E-003
                     9 -7.115328977082138E-009
                    10  3.117826087514253E-008
                    11 -1.367202148678531E-004
                    12 -8.261417758155641E-009
                    13 -7.133392472606923E-009
                    14 -1.635663990041576E-004
                    15  2.556281261288402E-004
                    16  2.810248508930485E-008
                    17 -5.413055532854757E-008
                    18 -9.382530715174946E-005
                    19  5.584322811966080E-005
                    20  1.486418764620531E-004
                    21 -5.730803793080803E-008
                    22 -1.218867404474782E-007
                    23  4.571615709692176E-004
                    24 -3.139808019130789E-004
                    25 -1.874323711770855E-004
                    26  3.995583688155169E-009
                    27 -8.529679242931292E-008
                    28  7.870013783281366E-005
                    29 -3.403454232061057E-005
                    30  3.191038221457769E-009
                    31 -1.731578021131608E-008
                    32 -3.392171306379108E-004
                    33  2.726455231842981E-003
                    34  1.461860775023753E-004
                    35 -2.988830028031022E-004
                    36 -2.547572437516454E-007
                    37  1.071618743530945E-006
                    38 -6.984611863573809E-003
                    39  1.599206758459299E-008
                    40 -9.750105329206277E-008
                    41  3.113150857216380E-004
                    42  1.525133606554132E-007
                    43 -6.191459365410058E-007
                    44  4.370503956060630E-003
                    45  3.470688541288505E-004
                    46  1.545739101592664E-008
                    47 -1.003883717240554E-007
                    48  1.311397529801591E-004
                    49 -9.662260479419855E-006
                    50  1.330839333720280E-004
                    51  3.376931206456841E-008
                    52 -1.234928508097792E-007
                    53 -3.756644005214070E-004
                    54  7.967018486395277E-005
                    55 -1.069762405459305E-004
                    56  2.033588012568084E-009
                    57 -5.825723288286374E-008
                    58  7.232650767519680E-005
                    59 -1.552547796648722E-005
                    60 -3.412098399177665E-010
                    61 -1.776605709664326E-008
                    62 -2.093923609986862E-004
                    63 -1.667350627710350E-003
                    64  4.848686152818272E-005
                    65  6.026573666802640E-004
                    66 -1.818160838160549E-005
                    67 -8.393904924618495E-004
                    68  1.011396329147317E-003
                    69  3.937871442834455E-005
                    70 -1.385393291580729E-005
                    71  5.605180353909649E-004
                    72  2.254530316586884E-005
                    73 -6.038684846023424E-004
                    74 -1.568978853703395E-004
                    75  9.083042065405052E-005
                    76  2.115412904960552E-006
                    77 -9.508561501456074E-006
                    78  3.923014418875478E-005
                    79 -3.201894018564439E-007
                    80 -4.754819532610623E-006
                    81 -2.740704693854042E-005
                    82  1.775464124260505E-004
                    83 -2.152599877897076E-005
                    84  2.327522568713141E-005
                    85 -9.130170358536953E-005
                    86  2.925071389879377E-006
                    87 -2.566171472907578E-005
                    88  2.080195926716600E-005
                    89 -5.528414088083928E-006
                    90  1.441555611373890E-006
                    91  1.445766175434281E-005
                    92 -2.093559896105941E-004
                    93 -1.667204381658112E-003
                    94  4.865296444029993E-005
                    95  6.021093935694567E-004
                    96  1.825236178034344E-005
                    97  8.391046550026059E-004
                    98  1.011756890699449E-003
                    99 -3.933329430856645E-005
                   100  1.354430990504279E-005
                   101  5.598916655106342E-004
                   102 -2.253894960581769E-005
                   103  6.033382386404152E-004
                   104 -1.565566707382108E-004
                   105  9.080282339040327E-005
                   106 -2.106789045893789E-006
                   107  9.466296678318672E-006
                   108  3.923488199976184E-005
                   109 -3.189302427659075E-007
                   110 -5.294005551330216E-006
                   111  2.741971041189526E-005
                   112 -1.776462501199147E-004
                   113 -2.166730753393952E-005
                   114  2.325241837342912E-005
                   115 -9.125351525823940E-005
                   116 -2.913670033717732E-006
                   117  2.558686358416784E-005
                   118  2.080401732315618E-005
                   119 -5.523848531272869E-006
                   120 -1.441656860668682E-006
                   121 -1.446505098373070E-005
                   122 -1.497684498622914E-004
                   123 -5.017249053984253E-006
                   124  1.080611963858199E-004
                   125  1.400541907015779E-004
                   126 -2.229084799085652E-005
                   127  4.126531426045037E-005
                   128 -7.874111031038963E-004
                   129  1.184065020074128E-006
                   130  2.219956734128005E-005
                   131  3.358932471433689E-004
                   132  1.394697290639907E-005
                   133 -1.489716374286166E-004
                   134  6.956729929485553E-004
                   135 -1.598645216970324E-005
                   136  1.568807218738556E-006
                   137  2.138377516181783E-006
                   138  9.852218741604656E-007
                   139  1.223224671446066E-006
                   140 -1.837418076539036E-004
                   141 -1.433952433570489E-005
                   142  1.589445156590792E-004
                   143  1.537521276763698E-005
                   144 -7.073435731918662E-006
                   145 -3.770859181122681E-005
                   146  4.261274425949424E-007
                   147  5.708938562087040E-007
                   148 -9.154716841415277E-006
                   149 -1.145949581679391E-006
                   150 -5.903736954813292E-007
                   151 -3.360682137049189E-006
                   152 -1.502452269573799E-004
                   153 -6.701671661772027E-006
                   154  1.075813857867968E-004
                   155  1.430838464526168E-004
                   156  2.222724734913060E-005
                   157 -4.097174469711318E-005
                   158 -7.873937575655081E-004
                   159 -1.138764419828345E-006
                   160 -2.265489126097364E-005
                   161  3.355263344920303E-004
                   162 -1.391518649402807E-005
                   163  1.493135458231588E-004
                   164  6.958881138273193E-004
                   165 -1.593308503511068E-005
                   166 -1.571463157223865E-006
                   167 -2.138099737581048E-006
                   168  9.327118180936904E-007
                   169  1.220340747649377E-006
                   170 -1.836906591981748E-004
                   171  1.431439789049407E-005
                   172 -1.591100954833254E-004
                   173  1.528407536569260E-005
                   174 -7.088659237866154E-006
                   175 -3.762081168683668E-005
                   176 -4.170188646193668E-007
                   177 -5.865973484211737E-007
                   178 -9.204915143813043E-006
                   179 -1.148395620113089E-006
                   180  5.915816287502440E-007
                   181  3.373298902147947E-006
                   182 -1.247567261431321E-004
                   183 -3.351384394491311E-004
                   184  3.142598626591287E-005
                   185  1.628649432397390E-004
                   186 -7.214283986320230E-009
                   187  9.295345620553306E-008
                   188 -4.265272134409457E-005
                   189  1.639527687929827E-008
                   190 -4.342060845120643E-007
                   191  1.738552153484574E-005
                   192  4.112598169847649E-009
                   193 -4.372937036185750E-008
                   194  3.484581710760391E-005
                   195  1.881789301407124E-005
                   196  1.347141057079997E-010
                   197  1.764950768737844E-008
                   198  8.633724244581398E-006
                   199  5.738141454528545E-007
                   200  5.640290704227697E-005
                   201 -3.704906881162303E-009
                   202  1.889343938958091E-007
                   203  4.560192058435344E-005
                   204 -5.188675958374608E-006
                   205 -1.169522334286964E-005
                   206  1.577202955249432E-009
                   207 -1.324204380958920E-008
                   208  3.311818185763604E-006
                   209  1.487799234446093E-006
                   210  1.637022186252046E-009
                   211  2.662108183720336E-008
                   212  3.853953272052619E-003
                   213 -2.320658696480550E-003
                   214  1.697902937858844E-004
                   215  4.357387013982106E-004
                   216  3.730749389616952E-004
                   217  3.853929978413247E-003
                   218 -2.320648626701784E-003
                   219 -1.697633479166147E-004
                   220 -4.358497513681484E-004
                   221  3.729582304857202E-004
                   222 -6.494790252961168E-004
                   223 -1.571997198910876E-004
                   224  1.547272603362377E-006
                   225 -1.964457069904030E-005
                   226 -4.371561919998195E-005
                   227 -6.495482148924987E-004
                   228 -1.568256911285258E-004
                   229 -1.550447251578910E-006
                   230  1.963956508069580E-005
                   231 -4.373624847587460E-005
                   232 -2.318105313106629E-004
                   233 -3.910309457753770E-004
                   234 -1.800449482929140E-006
                   235 -6.432389928374592E-006
                   236  5.057705491089074E-006
                   237 -2.318500734118514E-004
                   238 -3.911926051446279E-004
                   239  1.798781837980921E-006
                   240  6.477180600011619E-006
                   241  5.106641325265951E-006
                   242  6.861312990665420E-005
                   243 -1.162441536214998E-004
                   244  4.881252156671027E-010
                   245 -2.332962253669763E-008
                   246  1.473040908687019E-005
 Sym= __2_A__
 Ene=   2.00000000000000     
 Spin= Alpha
 Occup=    1.00000000000000     
                     1 -4.215678004041594E-005
                     2 -1.986150090161194E-004
                     3  2.251156788586625E-003
                     4  9.640772939898236E-005
                     5  1.263468896310831E-003
                     6  1.024827847017081E-007
                     7 -4.333301715922274E-007
                     8  2.903146052695992E-003
                     9 -1.411625774621101E-009
                    10  4.981154084104292E-009
                    11 -5.800637854729182E-005
                    12 -1.433614682589640E-008
                    13  7.726626477447005E-008
                    14 -4.712406016545213E-004
                    15  4.354234691443870E-005
                    16 -2.654998139324937E-009
                    17 -1.872008741395766E-008
                    18  5.651358439117830E-005
                    19 -2.057375152076539E-005
                    20 -2.593439217808945E-004
                    21  1.187818408586046E-008
                    22  1.046019762649865E-007
                    23 -2.773189103884236E-004
                    24  1.144005283711367E-004
                    25  1.844690386563857E-004
                    26 -2.060208691517924E-008
                    27  7.235935013143791E-008
                    28 -1.039402528224269E-005
                    29 -2.440906157815116E-005
                    30  5.155115345446717E-009
                    31  1.553940183390510E-009
                    32   1.00105692264331     
                    33  9.224195159179849E-003
                    34  2.625715094878232E-003
                    35 -7.769617384108468E-003
                    36 -1.448647789799538E-007
                    37  6.045223607054018E-007
                    38 -4.040541883302785E-003
                    39  3.738982417232915E-008
                    40 -1.581912830852484E-007
                    41  1.051740204778408E-003
                    42  1.593702114084350E-007
                    43 -7.260705007230630E-007
                    44  4.364913232452976E-003
                    45  4.551828959728223E-004
                    46  4.557344870422962E-008
                    47 -5.811894697374294E-008
                    48 -4.237685959875236E-004
                    49  1.392601582637682E-005
                    50  5.332788981327828E-004
                    51 -1.618357680442916E-009
                    52 -2.663343056629015E-007
                    53  9.041539445455506E-004
                    54 -2.137237785934258E-005
                    55  3.761528150755969E-004
                    56 -1.967286051417362E-008
                    57  1.852305615344311E-007
                    58 -2.014503853677904E-004
                    59  1.033971476868465E-005
                    60  7.039031589269168E-009
                    61  3.929057500890523E-008
                    62  7.600657906040931E-003
                    63 -2.029312158814544E-003
                    64 -2.734490309515448E-004
                    65  3.010492206929088E-003
                    66  6.522402356271534E-006
                    67  1.089964154945034E-004
                    68 -2.390120733295480E-005
                    69 -2.954719841763655E-005
                    70  5.848173382438419E-004
                    71  4.140659417622107E-005
                    72  5.259532271349812E-005
                    73 -2.056507263263604E-003
                    74  9.542716883991154E-005
                    75 -1.585601562192185E-005
                    76  1.028052697673225E-006
                    77  1.496028877610070E-005
                    78  2.928331365474304E-005
                    79  1.736796025777257E-006
                    80  7.594579085279856E-004
                    81  2.244912739561487E-005
                    82 -4.197447303286776E-004
                    83 -1.485247333182323E-005
                    84 -1.449658074014674E-005
                    85  7.076201820503786E-005
                    86 -6.072878551437247E-007
                    87  4.308512824737129E-005
                    88 -1.253399456264722E-004
                    89  1.317553800040544E-006
                    90  1.514667047367556E-006
                    91  4.984121948010452E-005
                    92  7.600631865241685E-003
                    93 -2.029395707805580E-003
                    94 -2.734903875532337E-004
                    95  3.010688355199335E-003
                    96 -6.523504879607069E-006
                    97 -1.089898125014175E-004
                    98 -2.395593728304037E-005
                    99  2.954902368092453E-005
                   100 -5.848304755583804E-004
                   101  4.135388993143260E-005
                   102 -5.259323221498356E-005
                   103  2.056600252296253E-003
                   104  9.589677461022242E-005
                   105 -1.585005157062503E-005
                   106 -1.031728752938872E-006
                   107 -1.496690924900930E-005
                   108  2.927716984836236E-005
                   109  1.736077992329384E-006
                   110  7.597382151048880E-004
                   111 -2.235983548801952E-005
                   112  4.194004197843075E-004
                   113 -1.470941003351878E-005
                   114 -1.445917505430114E-005
                   115  7.078103828665346E-005
                   116  6.093159890067386E-007
                   117 -4.297037924700113E-005
                   118 -1.253766424948025E-004
                   119  1.316257800863736E-006
                   120 -1.503910634173878E-006
                   121 -4.979321074937575E-005
                   122 -2.266453067295298E-004
                   123 -7.513234269693086E-004
                   124  2.246668840734048E-004
                   125 -1.185530674035825E-004
                   126 -3.996116439541259E-006
                   127 -2.078683219611346E-005
                   128 -2.485389308378402E-004
                   129  7.664654071659322E-006
                   130 -4.030080851501860E-006
                   131  5.401430286766092E-004
                   132 -1.005846163661255E-005
                   133  3.189090941108916E-004
                   134  7.414447984056965E-004
                   135 -1.497736539216527E-005
                   136 -2.154853513862059E-006
                   137  5.121407144303335E-005
                   138  1.414628870095078E-005
                   139  1.321319353745926E-006
                   140 -2.930825279142100E-004
                   141  3.934114825010606E-006
                   142 -2.214074804834481E-004
                   143 -1.530693087946389E-005
                   144 -5.269852706366984E-006
                   145 -2.027377490147803E-008
                   146  2.106016449862190E-006
                   147 -3.916282013528065E-005
                   148 -3.876125153453612E-005
                   149 -2.111154412252619E-006
                   150  7.561925424803924E-007
                   151 -5.947117941768524E-006
                   152 -2.263622585707928E-004
                   153 -7.503841207536450E-004
                   154  2.247256533884469E-004
                   155 -1.195361392175583E-004
                   156  3.978663555889610E-006
                   157  2.085311305079642E-005
                   158 -2.485364195112357E-004
                   159 -7.628007601020351E-006
                   160  3.907301450122651E-006