[Molden Format]
[Atoms] AU
  N     1    7     0.0000000000   -4.2907334100    0.0000000000        
  C     2    6     0.0000000000   -1.7772236300    0.0000000000        
  C     3    6    -2.3389203600   -0.4111016300    0.0000000000        
  C     4    6     2.3389203600   -0.4111016300    0.0000000000        
  C     5    6    -2.2998668500    2.1639215300    0.0000000000        
  C     6    6     2.2998668500    2.1639215300    0.0000000000        
  C     7    6     0.0000000000    3.4755251800    0.0000000000        
  H     8    1    -3.0557711500   -6.1758877400    0.0000000000        
  H     9    1     1.7691306600   -5.3821385500    0.0000000000        
  H    10    1    -4.0745407300   -1.4447408500    0.0000000000        
  H    11    1     4.0745407300   -1.4447408500    0.0000000000        
  H    12    1    -4.0420632100    3.1963889500    0.0000000000        
  H    13    1     4.0420632100    3.1963889500    0.0000000000        
  H    14    1     0.0000000000    5.5020335600    0.0000000000        
[5D]
[7F]
[GTO]
  1  0
   s    12 1.00
  0.114200D+05  0.172695D-04
  0.171200D+04  0.134411D-03
  0.389300D+03  0.694561D-03
  0.110000D+03  0.278531D-02
  0.355700D+02  0.863457D-02
  0.125400D+02  0.199805D-01
  0.464400D+01  0.262908D-01
  0.129300D+01 -0.243845D-01
  0.511800D+00 -0.924934D-01
  0.178700D+00 -0.339683D+00
  0.246240D-01  0.345111D+00
  0.112530D-01  0.752750D+00
   s    10 1.00
  0.114200D+05  0.523000D-03
  0.171200D+04  0.404500D-02
  0.389300D+03  0.207750D-01
  0.110000D+03  0.807269D-01
  0.355700D+02  0.233074D+00
  0.125400D+02  0.433501D+00
  0.464400D+01  0.347472D+00
  0.129300D+01  0.412620D-01
  0.511800D+00 -0.850799D-02
  0.178700D+00  0.238400D-02
   s    10 1.00
  0.114200D+05 -0.115000D-03
  0.171200D+04 -0.895000D-03
  0.389300D+03 -0.462400D-02
  0.110000D+03 -0.185280D-01
  0.355700D+02 -0.573390D-01
  0.125400D+02 -0.132076D+00
  0.464400D+01 -0.172510D+00
  0.129300D+01  0.151814D+00
  0.511800D+00  0.599944D+00
  0.178700D+00  0.387462D+00
   s     1 1.00
  0.129300D+01  0.100000D+01
   s     1 1.00
  0.178700D+00  0.100000D+01
   p     5 1.00
  0.266300D+02  0.146700D-01
  0.594800D+01  0.917640D-01
  0.174200D+01  0.298683D+00
  0.555000D+00  0.498487D+00
  0.172500D+00  0.337023D+00
   p     1 1.00
  0.174200D+01  0.100000D+01
   p     1 1.00
  0.555000D+00  0.100000D+01
   d     1 1.00
  0.165400D+01  0.100000D+01
   d     1 1.00
  0.469000D+00  0.100000D+01
   f     1 1.00
  0.109300D+01  0.100000D+01
  
  2  0
   s    10 1.00
  0.823600D+04  0.531000D-03
  0.123500D+04  0.410800D-02
  0.280800D+03  0.210870D-01
  0.792700D+02  0.818530D-01
  0.255900D+02  0.234817D+00
  0.899700D+01  0.434401D+00
  0.331900D+01  0.346129D+00
  0.905900D+00  0.393780D-01
  0.364300D+00 -0.898300D-02
  0.128500D+00  0.238500D-02
   s    10 1.00
  0.823600D+04 -0.113000D-03
  0.123500D+04 -0.878000D-03
  0.280800D+03 -0.454000D-02
  0.792700D+02 -0.181330D-01
  0.255900D+02 -0.557600D-01
  0.899700D+01 -0.126895D+00
  0.331900D+01 -0.170352D+00
  0.905900D+00  0.140382D+00
  0.364300D+00  0.598684D+00
  0.128500D+00  0.395389D+00
   s     1 1.00
  0.905900D+00  0.100000D+01
   s     1 1.00
  0.364300D+00  0.100000D+01
   p     5 1.00
  0.187100D+02  0.140310D-01
  0.413300D+01  0.868660D-01
  0.120000D+01  0.290216D+00
  0.382700D+00  0.501008D+00
  0.120900D+00  0.343406D+00
   p     1 1.00
  0.382700D+00  0.100000D+01
   p     1 1.00
  0.120900D+00  0.100000D+01
   d     1 1.00
  0.109700D+01  0.100000D+01
   d     1 1.00
  0.318000D+00  0.100000D+01
   f     1 1.00
  0.761000D+00  0.100000D+01
  
  3  0
   s    10 1.00
  0.823600D+04  0.531000D-03
  0.123500D+04  0.410800D-02
  0.280800D+03  0.210870D-01
  0.792700D+02  0.818530D-01
  0.255900D+02  0.234817D+00
  0.899700D+01  0.434401D+00
  0.331900D+01  0.346129D+00
  0.905900D+00  0.393780D-01
  0.364300D+00 -0.898300D-02
  0.128500D+00  0.238500D-02
   s    10 1.00
  0.823600D+04 -0.113000D-03
  0.123500D+04 -0.878000D-03
  0.280800D+03 -0.454000D-02
  0.792700D+02 -0.181330D-01
  0.255900D+02 -0.557600D-01
  0.899700D+01 -0.126895D+00
  0.331900D+01 -0.170352D+00
  0.905900D+00  0.140382D+00
  0.364300D+00  0.598684D+00
  0.128500D+00  0.395389D+00
   s     1 1.00
  0.905900D+00  0.100000D+01
   s     1 1.00
  0.364300D+00  0.100000D+01
   p     5 1.00
  0.187100D+02  0.140310D-01
  0.413300D+01  0.868660D-01
  0.120000D+01  0.290216D+00
  0.382700D+00  0.501008D+00
  0.120900D+00  0.343406D+00
   p     1 1.00
  0.382700D+00  0.100000D+01
   p     1 1.00
  0.120900D+00  0.100000D+01
   d     1 1.00
  0.109700D+01  0.100000D+01
   d     1 1.00
  0.318000D+00  0.100000D+01
   f     1 1.00
  0.761000D+00  0.100000D+01
  
  4  0
   s    10 1.00
  0.823600D+04  0.531000D-03
  0.123500D+04  0.410800D-02
  0.280800D+03  0.210870D-01
  0.792700D+02  0.818530D-01
  0.255900D+02  0.234817D+00
  0.899700D+01  0.434401D+00
  0.331900D+01  0.346129D+00
  0.905900D+00  0.393780D-01
  0.364300D+00 -0.898300D-02
  0.128500D+00  0.238500D-02
   s    10 1.00
  0.823600D+04 -0.113000D-03
  0.123500D+04 -0.878000D-03
  0.280800D+03 -0.454000D-02
  0.792700D+02 -0.181330D-01
  0.255900D+02 -0.557600D-01
  0.899700D+01 -0.126895D+00
  0.331900D+01 -0.170352D+00
  0.905900D+00  0.140382D+00
  0.364300D+00  0.598684D+00
  0.128500D+00  0.395389D+00
   s     1 1.00
  0.905900D+00  0.100000D+01
   s     1 1.00
  0.364300D+00  0.100000D+01
   p     5 1.00
  0.187100D+02  0.140310D-01
  0.413300D+01  0.868660D-01
  0.120000D+01  0.290216D+00
  0.382700D+00  0.501008D+00
  0.120900D+00  0.343406D+00
   p     1 1.00
  0.382700D+00  0.100000D+01
   p     1 1.00
  0.120900D+00  0.100000D+01
   d     1 1.00
  0.109700D+01  0.100000D+01
   d     1 1.00
  0.318000D+00  0.100000D+01
   f     1 1.00
  0.761000D+00  0.100000D+01
  
  5  0
   s    10 1.00
  0.823600D+04  0.531000D-03
  0.123500D+04  0.410800D-02
  0.280800D+03  0.210870D-01
  0.792700D+02  0.818530D-01
  0.255900D+02  0.234817D+00
  0.899700D+01  0.434401D+00
  0.331900D+01  0.346129D+00
  0.905900D+00  0.393780D-01
  0.364300D+00 -0.898300D-02
  0.128500D+00  0.238500D-02
   s    10 1.00
  0.823600D+04 -0.113000D-03
  0.123500D+04 -0.878000D-03
  0.280800D+03 -0.454000D-02
  0.792700D+02 -0.181330D-01
  0.255900D+02 -0.557600D-01
  0.899700D+01 -0.126895D+00
  0.331900D+01 -0.170352D+00
  0.905900D+00  0.140382D+00
  0.364300D+00  0.598684D+00
  0.128500D+00  0.395389D+00
   s     1 1.00
  0.905900D+00  0.100000D+01
   s     1 1.00
  0.364300D+00  0.100000D+01
   p     5 1.00
  0.187100D+02  0.140310D-01
  0.413300D+01  0.868660D-01
  0.120000D+01  0.290216D+00
  0.382700D+00  0.501008D+00
  0.120900D+00  0.343406D+00
   p     1 1.00
  0.382700D+00  0.100000D+01
   p     1 1.00
  0.120900D+00  0.100000D+01
   d     1 1.00
  0.109700D+01  0.100000D+01
   d     1 1.00
  0.318000D+00  0.100000D+01
   f     1 1.00
  0.761000D+00  0.100000D+01
  
  6  0
   s    10 1.00
  0.823600D+04  0.531000D-03
  0.123500D+04  0.410800D-02
  0.280800D+03  0.210870D-01
  0.792700D+02  0.818530D-01
  0.255900D+02  0.234817D+00
  0.899700D+01  0.434401D+00
  0.331900D+01  0.346129D+00
  0.905900D+00  0.393780D-01
  0.364300D+00 -0.898300D-02
  0.128500D+00  0.238500D-02
   s    10 1.00
  0.823600D+04 -0.113000D-03
  0.123500D+04 -0.878000D-03
  0.280800D+03 -0.454000D-02
  0.792700D+02 -0.181330D-01
  0.255900D+02 -0.557600D-01
  0.899700D+01 -0.126895D+00
  0.331900D+01 -0.170352D+00
  0.905900D+00  0.140382D+00
  0.364300D+00  0.598684D+00
  0.128500D+00  0.395389D+00
   s     1 1.00
  0.905900D+00  0.100000D+01
   s     1 1.00
  0.364300D+00  0.100000D+01
   p     5 1.00
  0.187100D+02  0.140310D-01
  0.413300D+01  0.868660D-01
  0.120000D+01  0.290216D+00
  0.382700D+00  0.501008D+00
  0.120900D+00  0.343406D+00
   p     1 1.00
  0.382700D+00  0.100000D+01
   p     1 1.00
  0.120900D+00  0.100000D+01
   d     1 1.00
  0.109700D+01  0.100000D+01
   d     1 1.00
  0.318000D+00  0.100000D+01
   f     1 1.00
  0.761000D+00  0.100000D+01
  
  7  0
   s    10 1.00
  0.823600D+04  0.531000D-03
  0.123500D+04  0.410800D-02
  0.280800D+03  0.210870D-01
  0.792700D+02  0.818530D-01
  0.255900D+02  0.234817D+00
  0.899700D+01  0.434401D+00
  0.331900D+01  0.346129D+00
  0.905900D+00  0.393780D-01
  0.364300D+00 -0.898300D-02
  0.128500D+00  0.238500D-02
   s    10 1.00
  0.823600D+04 -0.113000D-03
  0.123500D+04 -0.878000D-03
  0.280800D+03 -0.454000D-02
  0.792700D+02 -0.181330D-01
  0.255900D+02 -0.557600D-01
  0.899700D+01 -0.126895D+00
  0.331900D+01 -0.170352D+00
  0.905900D+00  0.140382D+00
  0.364300D+00  0.598684D+00
  0.128500D+00  0.395389D+00
   s     1 1.00
  0.905900D+00  0.100000D+01
   s     1 1.00
  0.364300D+00  0.100000D+01
   p     5 1.00
  0.187100D+02  0.140310D-01
  0.413300D+01  0.868660D-01
  0.120000D+01  0.290216D+00
  0.382700D+00  0.501008D+00
  0.120900D+00  0.343406D+00
   p     1 1.00
  0.382700D+00  0.100000D+01
   p     1 1.00
  0.120900D+00  0.100000D+01
   d     1 1.00
  0.109700D+01  0.100000D+01
   d     1 1.00
  0.318000D+00  0.100000D+01
   f     1 1.00
  0.761000D+00  0.100000D+01
  
  8  0
   s     4 1.00
  0.130100D+02  0.196850D-01
  0.196200D+01  0.137977D+00
  0.444600D+00  0.478148D+00
  0.122000D+00  0.501240D+00
   s     1 1.00
  0.122000D+00  0.100000D+01
   p     1 1.00
  0.727000D+00  0.100000D+01
  
  9  0
   s     4 1.00
  0.130100D+02  0.196850D-01
  0.196200D+01  0.137977D+00
  0.444600D+00  0.478148D+00
  0.122000D+00  0.501240D+00
   s     1 1.00
  0.122000D+00  0.100000D+01
   p     1 1.00
  0.727000D+00  0.100000D+01
  
 10  0
   s     4 1.00
  0.130100D+02  0.196850D-01
  0.196200D+01  0.137977D+00
  0.444600D+00  0.478148D+00
  0.122000D+00  0.501240D+00
   s     1 1.00
  0.122000D+00  0.100000D+01
   p     1 1.00
  0.727000D+00  0.100000D+01
  
 11  0
   s     4 1.00
  0.130100D+02  0.196850D-01
  0.196200D+01  0.137977D+00
  0.444600D+00  0.478148D+00
  0.122000D+00  0.501240D+00
   s     1 1.00
  0.122000D+00  0.100000D+01
   p     1 1.00
  0.727000D+00  0.100000D+01
  
 12  0
   s     4 1.00
  0.130100D+02  0.196850D-01
  0.196200D+01  0.137977D+00
  0.444600D+00  0.478148D+00
  0.122000D+00  0.501240D+00
   s     1 1.00
  0.122000D+00  0.100000D+01
   p     1 1.00
  0.727000D+00  0.100000D+01
  
 13  0
   s     4 1.00
  0.130100D+02  0.196850D-01
  0.196200D+01  0.137977D+00
  0.444600D+00  0.478148D+00
  0.122000D+00  0.501240D+00
   s     1 1.00
  0.122000D+00  0.100000D+01
   p     1 1.00
  0.727000D+00  0.100000D+01
  
 14  0
   s     4 1.00
  0.130100D+02  0.196850D-01
  0.196200D+01  0.137977D+00
  0.444600D+00  0.478148D+00
  0.122000D+00  0.501240D+00
   s     1 1.00
  0.122000D+00  0.100000D+01
   p     1 1.00
  0.727000D+00  0.100000D+01
  
[MO]
 Sym= __1_a__
 Ene=  0.000000000000000E+000
 Spin= Alpha
 Occup=    2.00000000000000     
                     1  7.572152488175560E-005
                     2  0.998440964798267     
                     3  2.083484641085010E-003
                     4  1.664755709364870E-003
                     5  5.051743517416600E-003
                     6  3.305522191721060E-003
                     7  5.820294655473150E-003
                     8  4.465348620395280E-011
                     9 -6.834648754624921E-004
                    10 -4.671842835259900E-004
                    11 -1.825272827734200E-011
                    12 -2.464672237320720E-003
                    13 -1.392063858778090E-003
                    14 -3.430745832820030E-012
                    15 -9.156294346489878E-005
                    16  7.927949058541610E-013
                    17  6.795413931801060E-012
                    18 -2.254766262186240E-004
                    19 -9.048479572692241E-005
                    20  1.675281069644053E-004
                    21  1.460128799810130E-012
                    22  2.091689138319500E-012
                    23 -2.334708817527460E-004
                    24  6.809665592049130E-004
                    25  1.116098124127723E-012
                    26  8.707166842034576E-006
                    27 -5.996664623702260E-005
                    28  2.773217026343880E-012
                    29 -9.426059613929830E-012
                    30  2.884671264647766E-005
                    31 -1.162605920914236E-004
                    32 -3.380999622947990E-004
                    33  1.186076930449030E-003
                    34  2.769835771263510E-004
                    35 -2.526566968848810E-004
                    36 -1.986834492969260E-004
                    37 -4.728671917431820E-003
                    38  2.443875564098020E-011
                    39  5.438336506541200E-004
                    40  2.964353331657660E-004
                    41 -7.463822191078110E-013
                    42 -2.371168896789360E-003
                    43  5.259759791102080E-003
                    44 -9.807885768459071E-012
                    45 -2.130296069704630E-005
                    46  1.627430316220090E-012
                    47 -6.604828000964250E-013
                    48 -2.374250942624660E-004
                    49 -9.659272706158680E-006
                    50 -2.491254260851178E-004
                    51  9.358384490108481E-012
                    52  5.578929221670670E-012
                    53  8.813931008050060E-005
                    54  9.299073193084830E-004
                    55 -2.656896256565962E-012
                    56 -1.215488930435930E-005
                    57 -5.472928016092588E-005
                    58  1.147270284503278E-015
                    59  9.300044366025351E-013
                    60 -2.154145993021611E-005
                    61 -1.221170344648092E-004
                    62 -5.098123327460440E-004
                    63 -2.342370372065950E-003
                    64 -9.540794476409620E-005
                    65  2.205544749530370E-003
                    66 -7.027043947814560E-004
                    67  5.267079847434500E-004
                    68  1.030394160510090E-011
                    69  5.107084484703850E-004
                    70  8.161779465955820E-004
                    71 -5.143259307098270E-013
                    72 -1.722372454561540E-003
                    73  8.047867777250100E-004
                    74  4.476968581863630E-012
                    75 -4.203717736116871E-005
                    76  4.805324075135540E-012
                    77  1.561529770585070E-012
                    78 -9.080561411491021E-005
                    79 -3.408895543062460E-005
                    80 -1.449644774057926E-004
                    81 -1.327080811608860E-012
                    82 -2.679704872188920E-012
                    83  1.366480256689160E-004
                    84  1.211998756801060E-004
                    85 -6.564328330310601E-013
                    86  1.062537702069650E-005
                    87 -4.655531146320214E-005
                    88 -8.587952352256620E-014
                    89 -3.392771830699290E-012
                    90 -1.151124819111288E-005
                    91 -1.547283142809236E-004
                    92 -1.073678873436000E-004
                    93 -9.458259608625800E-004
                    94  2.296959393993610E-004
                    95 -4.746178010747820E-004
                    96  5.654946985784320E-004
                    97  7.019145962748079E-004
                    98  2.859963622403640E-011
                    99  4.850421517829280E-004
                   100  2.908682261462820E-004
                   101 -1.811055572870280E-011
                   102  4.385702977267430E-004
                   103 -1.519466635624070E-003
                   104 -1.176987388862320E-013
                   105  1.728998743108311E-007
                   106 -9.793752603589790E-013
                   107  3.713248017914250E-012
                   108 -6.506175300550800E-005
                   109 -2.236833576389560E-005
                   110  1.499568380761113E-004
                   111  7.518805618910180E-012
                   112  6.068087816730100E-012
                   113 -1.481749387794284E-004
                   114 -6.559708518397909E-005
                   115  3.800678040796222E-012
                   116 -2.525597691877462E-005
                   117 -2.956225343895480E-005
                   118 -5.405084979358180E-012
                   119  1.010419070715420E-014
                   120  1.431687616306210E-005
                   121 -1.553114879060474E-005
                   122 -2.643305534854070E-004
                   123 -5.153789715626430E-004
                   124  1.726959988590960E-004
                   125  3.901805820520750E-004
                   126 -7.938712417366240E-006
                   127 -5.772362435479120E-004
                   128  1.100733021998170E-011
                   129  1.761366923463980E-004
                   130  6.049595681364500E-004
                   131 -3.900211607901500E-012
                   132  3.966383247645460E-004
                   133  2.076885111904970E-003
                   134 -8.399833017594999E-012
                   135  1.210376848015712E-005
                   136  1.798040452457650E-012
                   137  7.867808741164110E-013
                   138  4.245966656396520E-005
                   139  1.213901400897990E-006
                   140  2.062595349907203E-004
                   141  7.584347342637530E-013
                   142 -3.481625842938470E-012
                   143  3.647685950173760E-004
                   144  2.703478259987940E-004
                   145 -2.982833205410641E-012
                   146 -8.222559832819517E-006
                   147 -6.217207023994765E-005
                   148  6.012928964707700E-013
                   149 -7.080094529795469E-014
                   150 -2.467263870265701E-005
                   151 -5.085862630587175E-005
                   152 -1.717553427186210E-004
                   153 -2.342283142952180E-004
                   154  2.759127718993670E-005
                   155  3.843396721860730E-004
                   156 -3.412266320653940E-005
                   157 -5.003271646201340E-004
                   158 -7.827897979443950E-012
                   159  3.392180093161350E-005
                   160  2.429561379853330E-005
                   161  5.159840473668340E-012
                   162  7.309991595929380E-004
                   163 -3.576456496464080E-004
                   164  6.718863138366390E-012
                   165 -3.934972936418304E-006
                   166  2.281938453375360E-012
                   167 -1.431429397099020E-012
                   168 -1.240819377682504E-005
                   169  4.669619296175650E-006
                   170  4.688287163894713E-005
                   171 -1.003672907371790E-011
                   172  8.786243794193550E-012
                   173 -3.452518956969680E-006
                   174 -2.170233189026250E-005
                   175  3.461275989287529E-013
                   176  4.264712002766199E-006
                   177 -4.817050113358479E-006
                   178  8.638795066961240E-013
                   179 -2.352891620706490E-013
                   180 -2.490440320654645E-005
                   181 -4.641649873193007E-006
                   182 -1.664714597032690E-004
                   183 -4.788109303098660E-004
                   184  4.628731847271520E-005
                   185  2.386004462455220E-004
                   186 -3.932018403766950E-005
                   187 -5.045059890070130E-005
                   188  7.679600475576680E-012
                   189  2.091738606607600E-004
                   190  6.545870371234239E-005
                   191 -8.562721425195170E-012
                   192  1.370226369343890E-003
                   193 -1.746829323211080E-004
                   194 -4.755222843172910E-012
                   195 -6.251325554924279E-007
                   196 -1.061923233224190E-012
                   197 -4.879456620365090E-013
                   198 -1.375776969474564E-005
                   199  7.735358737650461E-006
                   200  1.371561546401050E-005
                   201 -6.210349232526770E-012
                   202  3.809596021939940E-013
                   203 -8.607712437963980E-005
                   204 -1.881548020166250E-004
                   205 -4.534414433744297E-012
                   206 -5.335097873675330E-006
                   207 -5.238073453042949E-006
                   208  9.674062101348841E-013
                   209  3.152370012554570E-012
                   210  1.184748504902801E-005
                   211 -5.148192108549246E-006
                   212 -3.428644240495700E-005
                   213  1.094934068976230E-004
                   214  5.416952743606630E-005
                   215  7.046409457070190E-005
                   216 -3.782544652267440E-012
                   217  8.892160456768680E-004
                   218 -1.309705551711730E-003
                   219 -4.453473805264560E-004
                   220  2.133224760479820E-004
                   221 -1.865264780317100E-012
                   222 -4.879080922357330E-004
                   223 -5.907588235418120E-004
                   224  9.152895365840929E-006
                   225 -7.688578173351649E-005
                   226  3.914052529283250E-012
                   227 -2.607034017961040E-004
                   228 -4.563158304608360E-004
                   229 -4.657942658136820E-006
                   230 -1.226105003254650E-005
                   231 -1.626589680862840E-012
                   232 -7.361528889594720E-005
                   233 -5.615293838957740E-004
                   234  5.338983269809300E-006
                   235 -1.680922526904270E-006
                   236 -5.193544777966740E-013
                   237 -1.847511758934760E-004
                   238 -3.690995798062610E-004
                   239  9.924810982772611E-006
                   240  4.883712140980710E-006
                   241  1.948312876559760E-012
                   242  1.682273542076500E-005
                   243 -1.755283578846910E-005
                   244 -7.417534012223770E-007
                   245  2.306764784214130E-005
                   246  2.955564473967120E-012
 Sym= __2_a__
 Ene=  0.000000000000000E+000
 Spin= Alpha
 Occup=    2.00000000000000     
                     1 -4.934457758965550E-005
                     2 -3.235890214605910E-004
                     3  2.866075376573110E-003
                     4  1.448706966138390E-004
                     5  1.354388561152570E-003
                     6 -3.171259218881610E-004
                     7  2.942901799708310E-003
                     8  6.787046338002300E-012
                     9 -7.577746401103030E-005
                    10 -1.101429095990370E-004
                    11 -8.264956919807500E-012
                    12  8.169460799078950E-005
                    13 -4.057252123390060E-004
                    14  8.449599155785280E-012
                    15  3.082107934325488E-005
                    16 -2.035117097209980E-012
                    17  2.794979643877730E-012
                    18 -4.529827238017900E-005
                    19  1.278591293893110E-005
                    20 -1.154013114765874E-004
                    21  2.153441115834470E-012
                    22 -1.266183719322710E-012
                    23  1.410124062208294E-004
                    24 -2.996534663125240E-005
                    25  3.037269218051840E-012
                    26 -1.919645256525391E-005
                    27  8.719212357781594E-005
                    28 -2.418694133302920E-012
                    29 -1.026610375745580E-011
                    30 -1.880727502546094E-005
                    31  1.462166097838855E-004
                    32   1.00104721766029     
                    33  9.300423768155271E-003
                    34  2.699244098925130E-003
                    35 -8.143841048680191E-003
                    36 -1.367433525988940E-004
                    37 -3.586360536290720E-003
                    38  2.929161951701090E-012
                    39  1.533779013111070E-004
                    40  4.360481873465410E-004
                    41 -1.460187349760790E-012
                    42  2.092676227119450E-005
                    43  4.221592912447100E-003
                    44 -2.258690498447930E-012
                    45 -5.667838907403040E-004
                    46 -2.105681796172040E-012
                    47 -3.663337150323980E-012
                    48 -1.990484898510156E-004
                    49 -6.477266014325510E-006
                    50  5.473893254588522E-004
                    51  1.540536801455150E-011
                    52 -3.840728011706230E-012
                    53 -8.891814707661820E-004
                    54  5.301422654115210E-005
                    55 -5.158234442948827E-012
                    56 -5.215508368451085E-006
                    57  9.446789297185988E-005
                    58 -2.925823006120480E-012
                    59  5.490487670165610E-012
                    60  4.641461609612599E-006
                    61  3.970206746535222E-004
                    62  8.936750052105419E-003
                    63 -2.086244859973190E-003
                    64 -3.008695526580000E-004
                    65  3.066609043576090E-003
                    66 -2.732272827951440E-005
                    67  1.334698915291130E-004
                    68 -5.569169644197710E-012
                    69  7.405815462065200E-004
                    70 -3.686518351733310E-006
                    71  1.125973850132410E-011
                    72 -2.070357382367620E-003
                    73  7.674472530029810E-005
                    74  6.277634559900250E-012
                    75  2.598932091807854E-005
                    76  1.312831955544710E-012
                    77 -1.041653557857820E-012
                    78 -2.404687539017880E-006
                    79  5.199399128871650E-007
                    80 -4.157896116823383E-004
                    81  1.330171020976940E-011
                    82 -6.164115998694410E-012
                    83 -5.879952854674480E-004
                    84 -3.743057425307870E-004
                    85 -1.265618530574500E-012
                    86  3.252158084079936E-005
                    87 -5.946403546195638E-005
                    88  3.554006695367660E-013
                    89 -4.056671729227840E-012
                    90  5.060477990837533E-005
                    91  1.399395292088930E-004
                    92  9.726984997958200E-003
                    93 -2.065286490795840E-003
                    94 -2.810367261130770E-004
                    95  3.007219194717970E-003
                    96  2.713622968589460E-005
                    97  1.025684117260580E-004
                    98 -7.805975265437480E-014
                    99 -6.607502200436560E-004
                   100  5.274495380919480E-005
                   101  3.348357257710670E-013
                   102  2.017276057048130E-003
                   103  4.416309313026680E-005
                   104  5.397058394122880E-012
                   105  3.120773779048612E-005
                   106 -3.282645077279260E-012
                   107 -1.547269744588770E-012
                   108 -5.967054046604560E-006
                   109 -7.920351076699361E-006
                   110 -4.105689713916900E-004
                   111  3.439078151404220E-012
                   112  2.501885945111090E-012
                   113 -6.098034425236900E-004
                   114  3.601650169139840E-004
                   115  3.582272838929521E-012
                   116 -3.241628016613518E-005
                   117 -6.032481151761080E-005
                   118 -4.239638370767640E-012
                   119  7.297692977858300E-012
                   120 -4.870422825556749E-005
                   121  1.362093753744588E-004
                   122 -1.540022729699990E-004
                   123 -6.584287049180370E-004
                   124  2.261917742132170E-004
                   125 -1.131723476441280E-004
                   126 -2.348829230576020E-006
                   127 -3.555143111886500E-004
                   128 -3.636089914563530E-012
                   129 -6.277046567007901E-005
                   130  5.446099070735971E-004
                   131  9.668793255327880E-012
                   132  3.304610160915170E-004
                   133  7.704683584438830E-004
                   134 -5.798954454123480E-012
                   135  1.891696487066723E-005
                   136 -6.395597984645160E-013
                   137  2.661355959248090E-012
                   138  3.870102743068880E-006
                   139  5.283131805742110E-005
                   140  1.377412553466940E-004
                   141 -3.485078561116760E-012
                   142 -2.404993227965460E-012
                   143  2.432528192743820E-004
                   144 -1.797965049150560E-004
                   145 -1.573948765920094E-012
                   146  7.300201743941991E-006
                   147 -3.390227752320590E-005
                   148 -5.120665923505840E-013
                   149  2.310123186238330E-012
                   150 -4.777789890770182E-005
                   151  2.869446183114550E-005
                   152 -1.380997624999420E-004
                   153 -6.660393483707960E-004
                   154  2.299817065712710E-004
                   155 -1.390035317977400E-004
                   156 -1.236078508718360E-006
                   157 -3.469736679921130E-004
                   158  1.465275717036240E-011
                   159  4.981272821198460E-005
                   160  5.644836258838140E-004