[Molden Format]
[Atoms] AU
  N     1    7     0.0000000000    0.0000000000   -4.2907334100        
  C     2    6     0.0000000000    0.0000000000   -1.7772236300        
  C     3    6     0.0000000000   -2.3389203600   -0.4111016300        
  C     4    6     0.0000000000    2.3389203600   -0.4111016300        
  C     5    6     0.0000000000   -2.2998668500    2.1639215300        
  C     6    6     0.0000000000    2.2998668500    2.1639215300        
  C     7    6     0.0000000000    0.0000000000    3.4755251800        
  H     8    1     0.0000000000   -2.2516208400   -5.6797945000        
  H     9    1     0.0000000000    1.7691306600   -5.3821385500        
  H    10    1     0.0000000000   -4.0745407300   -1.4447408500        
  H    11    1     0.0000000000    4.0745407300   -1.4447408500        
  H    12    1     0.0000000000   -4.0420632100    3.1963889500        
  H    13    1     0.0000000000    4.0420632100    3.1963889500        
  H    14    1     0.0000000000    0.0000000000    5.5020335600        
[5D]
[7F]
[GTO]
  1  0
   s    12 1.00
  0.114200D+05  0.172695D-04
  0.171200D+04  0.134411D-03
  0.389300D+03  0.694561D-03
  0.110000D+03  0.278531D-02
  0.355700D+02  0.863457D-02
  0.125400D+02  0.199805D-01
  0.464400D+01  0.262908D-01
  0.129300D+01 -0.243845D-01
  0.511800D+00 -0.924934D-01
  0.178700D+00 -0.339683D+00
  0.246240D-01  0.345111D+00
  0.112530D-01  0.752750D+00
   s    10 1.00
  0.114200D+05  0.523000D-03
  0.171200D+04  0.404500D-02
  0.389300D+03  0.207750D-01
  0.110000D+03  0.807269D-01
  0.355700D+02  0.233074D+00
  0.125400D+02  0.433501D+00
  0.464400D+01  0.347472D+00
  0.129300D+01  0.412620D-01
  0.511800D+00 -0.850799D-02
  0.178700D+00  0.238400D-02
   s    10 1.00
  0.114200D+05 -0.115000D-03
  0.171200D+04 -0.895000D-03
  0.389300D+03 -0.462400D-02
  0.110000D+03 -0.185280D-01
  0.355700D+02 -0.573390D-01
  0.125400D+02 -0.132076D+00
  0.464400D+01 -0.172510D+00
  0.129300D+01  0.151814D+00
  0.511800D+00  0.599944D+00
  0.178700D+00  0.387462D+00
   s     1 1.00
  0.129300D+01  0.100000D+01
   s     1 1.00
  0.178700D+00  0.100000D+01
   p     5 1.00
  0.266300D+02  0.146700D-01
  0.594800D+01  0.917640D-01
  0.174200D+01  0.298683D+00
  0.555000D+00  0.498487D+00
  0.172500D+00  0.337023D+00
   p     1 1.00
  0.174200D+01  0.100000D+01
   p     1 1.00
  0.555000D+00  0.100000D+01
   d     1 1.00
  0.165400D+01  0.100000D+01
   d     1 1.00
  0.469000D+00  0.100000D+01
   f     1 1.00
  0.109300D+01  0.100000D+01
  
  2  0
   s    10 1.00
  0.823600D+04  0.531000D-03
  0.123500D+04  0.410800D-02
  0.280800D+03  0.210870D-01
  0.792700D+02  0.818530D-01
  0.255900D+02  0.234817D+00
  0.899700D+01  0.434401D+00
  0.331900D+01  0.346129D+00
  0.905900D+00  0.393780D-01
  0.364300D+00 -0.898300D-02
  0.128500D+00  0.238500D-02
   s    10 1.00
  0.823600D+04 -0.113000D-03
  0.123500D+04 -0.878000D-03
  0.280800D+03 -0.454000D-02
  0.792700D+02 -0.181330D-01
  0.255900D+02 -0.557600D-01
  0.899700D+01 -0.126895D+00
  0.331900D+01 -0.170352D+00
  0.905900D+00  0.140382D+00
  0.364300D+00  0.598684D+00
  0.128500D+00  0.395389D+00
   s     1 1.00
  0.905900D+00  0.100000D+01
   s     1 1.00
  0.364300D+00  0.100000D+01
   p     5 1.00
  0.187100D+02  0.140310D-01
  0.413300D+01  0.868660D-01
  0.120000D+01  0.290216D+00
  0.382700D+00  0.501008D+00
  0.120900D+00  0.343406D+00
   p     1 1.00
  0.382700D+00  0.100000D+01
   p     1 1.00
  0.120900D+00  0.100000D+01
   d     1 1.00
  0.109700D+01  0.100000D+01
   d     1 1.00
  0.318000D+00  0.100000D+01
   f     1 1.00
  0.761000D+00  0.100000D+01
  
  3  0
   s    10 1.00
  0.823600D+04  0.531000D-03
  0.123500D+04  0.410800D-02
  0.280800D+03  0.210870D-01
  0.792700D+02  0.818530D-01
  0.255900D+02  0.234817D+00
  0.899700D+01  0.434401D+00
  0.331900D+01  0.346129D+00
  0.905900D+00  0.393780D-01
  0.364300D+00 -0.898300D-02
  0.128500D+00  0.238500D-02
   s    10 1.00
  0.823600D+04 -0.113000D-03
  0.123500D+04 -0.878000D-03
  0.280800D+03 -0.454000D-02
  0.792700D+02 -0.181330D-01
  0.255900D+02 -0.557600D-01
  0.899700D+01 -0.126895D+00
  0.331900D+01 -0.170352D+00
  0.905900D+00  0.140382D+00
  0.364300D+00  0.598684D+00
  0.128500D+00  0.395389D+00
   s     1 1.00
  0.905900D+00  0.100000D+01
   s     1 1.00
  0.364300D+00  0.100000D+01
   p     5 1.00
  0.187100D+02  0.140310D-01
  0.413300D+01  0.868660D-01
  0.120000D+01  0.290216D+00
  0.382700D+00  0.501008D+00
  0.120900D+00  0.343406D+00
   p     1 1.00
  0.382700D+00  0.100000D+01
   p     1 1.00
  0.120900D+00  0.100000D+01
   d     1 1.00
  0.109700D+01  0.100000D+01
   d     1 1.00
  0.318000D+00  0.100000D+01
   f     1 1.00
  0.761000D+00  0.100000D+01
  
  4  0
   s    10 1.00
  0.823600D+04  0.531000D-03
  0.123500D+04  0.410800D-02
  0.280800D+03  0.210870D-01
  0.792700D+02  0.818530D-01
  0.255900D+02  0.234817D+00
  0.899700D+01  0.434401D+00
  0.331900D+01  0.346129D+00
  0.905900D+00  0.393780D-01
  0.364300D+00 -0.898300D-02
  0.128500D+00  0.238500D-02
   s    10 1.00
  0.823600D+04 -0.113000D-03
  0.123500D+04 -0.878000D-03
  0.280800D+03 -0.454000D-02
  0.792700D+02 -0.181330D-01
  0.255900D+02 -0.557600D-01
  0.899700D+01 -0.126895D+00
  0.331900D+01 -0.170352D+00
  0.905900D+00  0.140382D+00
  0.364300D+00  0.598684D+00
  0.128500D+00  0.395389D+00
   s     1 1.00
  0.905900D+00  0.100000D+01
   s     1 1.00
  0.364300D+00  0.100000D+01
   p     5 1.00
  0.187100D+02  0.140310D-01
  0.413300D+01  0.868660D-01
  0.120000D+01  0.290216D+00
  0.382700D+00  0.501008D+00
  0.120900D+00  0.343406D+00
   p     1 1.00
  0.382700D+00  0.100000D+01
   p     1 1.00
  0.120900D+00  0.100000D+01
   d     1 1.00
  0.109700D+01  0.100000D+01
   d     1 1.00
  0.318000D+00  0.100000D+01
   f     1 1.00
  0.761000D+00  0.100000D+01
  
  5  0
   s    10 1.00
  0.823600D+04  0.531000D-03
  0.123500D+04  0.410800D-02
  0.280800D+03  0.210870D-01
  0.792700D+02  0.818530D-01
  0.255900D+02  0.234817D+00
  0.899700D+01  0.434401D+00
  0.331900D+01  0.346129D+00
  0.905900D+00  0.393780D-01
  0.364300D+00 -0.898300D-02
  0.128500D+00  0.238500D-02
   s    10 1.00
  0.823600D+04 -0.113000D-03
  0.123500D+04 -0.878000D-03
  0.280800D+03 -0.454000D-02
  0.792700D+02 -0.181330D-01
  0.255900D+02 -0.557600D-01
  0.899700D+01 -0.126895D+00
  0.331900D+01 -0.170352D+00
  0.905900D+00  0.140382D+00
  0.364300D+00  0.598684D+00
  0.128500D+00  0.395389D+00
   s     1 1.00
  0.905900D+00  0.100000D+01
   s     1 1.00
  0.364300D+00  0.100000D+01
   p     5 1.00
  0.187100D+02  0.140310D-01
  0.413300D+01  0.868660D-01
  0.120000D+01  0.290216D+00
  0.382700D+00  0.501008D+00
  0.120900D+00  0.343406D+00
   p     1 1.00
  0.382700D+00  0.100000D+01
   p     1 1.00
  0.120900D+00  0.100000D+01
   d     1 1.00
  0.109700D+01  0.100000D+01
   d     1 1.00
  0.318000D+00  0.100000D+01
   f     1 1.00
  0.761000D+00  0.100000D+01
  
  6  0
   s    10 1.00
  0.823600D+04  0.531000D-03
  0.123500D+04  0.410800D-02
  0.280800D+03  0.210870D-01
  0.792700D+02  0.818530D-01
  0.255900D+02  0.234817D+00
  0.899700D+01  0.434401D+00
  0.331900D+01  0.346129D+00
  0.905900D+00  0.393780D-01
  0.364300D+00 -0.898300D-02
  0.128500D+00  0.238500D-02
   s    10 1.00
  0.823600D+04 -0.113000D-03
  0.123500D+04 -0.878000D-03
  0.280800D+03 -0.454000D-02
  0.792700D+02 -0.181330D-01
  0.255900D+02 -0.557600D-01
  0.899700D+01 -0.126895D+00
  0.331900D+01 -0.170352D+00
  0.905900D+00  0.140382D+00
  0.364300D+00  0.598684D+00
  0.128500D+00  0.395389D+00
   s     1 1.00
  0.905900D+00  0.100000D+01
   s     1 1.00
  0.364300D+00  0.100000D+01
   p     5 1.00
  0.187100D+02  0.140310D-01
  0.413300D+01  0.868660D-01
  0.120000D+01  0.290216D+00
  0.382700D+00  0.501008D+00
  0.120900D+00  0.343406D+00
   p     1 1.00
  0.382700D+00  0.100000D+01
   p     1 1.00
  0.120900D+00  0.100000D+01
   d     1 1.00
  0.109700D+01  0.100000D+01
   d     1 1.00
  0.318000D+00  0.100000D+01
   f     1 1.00
  0.761000D+00  0.100000D+01
  
  7  0
   s    10 1.00
  0.823600D+04  0.531000D-03
  0.123500D+04  0.410800D-02
  0.280800D+03  0.210870D-01
  0.792700D+02  0.818530D-01
  0.255900D+02  0.234817D+00
  0.899700D+01  0.434401D+00
  0.331900D+01  0.346129D+00
  0.905900D+00  0.393780D-01
  0.364300D+00 -0.898300D-02
  0.128500D+00  0.238500D-02
   s    10 1.00
  0.823600D+04 -0.113000D-03
  0.123500D+04 -0.878000D-03
  0.280800D+03 -0.454000D-02
  0.792700D+02 -0.181330D-01
  0.255900D+02 -0.557600D-01
  0.899700D+01 -0.126895D+00
  0.331900D+01 -0.170352D+00
  0.905900D+00  0.140382D+00
  0.364300D+00  0.598684D+00
  0.128500D+00  0.395389D+00
   s     1 1.00
  0.905900D+00  0.100000D+01
   s     1 1.00
  0.364300D+00  0.100000D+01
   p     5 1.00
  0.187100D+02  0.140310D-01
  0.413300D+01  0.868660D-01
  0.120000D+01  0.290216D+00
  0.382700D+00  0.501008D+00
  0.120900D+00  0.343406D+00
   p     1 1.00
  0.382700D+00  0.100000D+01
   p     1 1.00
  0.120900D+00  0.100000D+01
   d     1 1.00
  0.109700D+01  0.100000D+01
   d     1 1.00
  0.318000D+00  0.100000D+01
   f     1 1.00
  0.761000D+00  0.100000D+01
  
  8  0
   s     4 1.00
  0.130100D+02  0.196850D-01
  0.196200D+01  0.137977D+00
  0.444600D+00  0.478148D+00
  0.122000D+00  0.501240D+00
   s     1 1.00
  0.122000D+00  0.100000D+01
   p     1 1.00
  0.727000D+00  0.100000D+01
  
  9  0
   s     4 1.00
  0.130100D+02  0.196850D-01
  0.196200D+01  0.137977D+00
  0.444600D+00  0.478148D+00
  0.122000D+00  0.501240D+00
   s     1 1.00
  0.122000D+00  0.100000D+01
   p     1 1.00
  0.727000D+00  0.100000D+01
  
 10  0
   s     4 1.00
  0.130100D+02  0.196850D-01
  0.196200D+01  0.137977D+00
  0.444600D+00  0.478148D+00
  0.122000D+00  0.501240D+00
   s     1 1.00
  0.122000D+00  0.100000D+01
   p     1 1.00
  0.727000D+00  0.100000D+01
  
 11  0
   s     4 1.00
  0.130100D+02  0.196850D-01
  0.196200D+01  0.137977D+00
  0.444600D+00  0.478148D+00
  0.122000D+00  0.501240D+00
   s     1 1.00
  0.122000D+00  0.100000D+01
   p     1 1.00
  0.727000D+00  0.100000D+01
  
 12  0
   s     4 1.00
  0.130100D+02  0.196850D-01
  0.196200D+01  0.137977D+00
  0.444600D+00  0.478148D+00
  0.122000D+00  0.501240D+00
   s     1 1.00
  0.122000D+00  0.100000D+01
   p     1 1.00
  0.727000D+00  0.100000D+01
  
 13  0
   s     4 1.00
  0.130100D+02  0.196850D-01
  0.196200D+01  0.137977D+00
  0.444600D+00  0.478148D+00
  0.122000D+00  0.501240D+00
   s     1 1.00
  0.122000D+00  0.100000D+01
   p     1 1.00
  0.727000D+00  0.100000D+01
  
 14  0
   s     4 1.00
  0.130100D+02  0.196850D-01
  0.196200D+01  0.137977D+00
  0.444600D+00  0.478148D+00
  0.122000D+00  0.501240D+00
   s     1 1.00
  0.122000D+00  0.100000D+01
   p     1 1.00
  0.727000D+00  0.100000D+01
  
[MO]
 Sym= __1_A__
 Ene=   1.00000000000000     
 Spin= Alpha
 Occup=    1.00000000000000     
                     1  2.348972853408825E-005
                     2  0.998527793011896     
                     3  2.608256169739667E-003
                     4  1.642488666574763E-003
                     5  3.947342026234688E-003
                     6 -9.875102230134165E-012
                     7  2.496121422511819E-003
                     8  5.791470227052688E-003
                     9  3.218247501412882E-012
                    10 -4.582377968706394E-004
                    11 -4.204892143182207E-004
                    12  5.807025718251241E-012
                    13 -1.628411014620964E-003
                    14 -1.254300902439750E-003
                    15  2.402321800981705E-004
                    16 -7.330947652537113E-013
                    17 -4.879384553103085E-005
                    18  9.009613214647818E-006
                    19  1.129922552350015E-012
                    20  1.047489162964084E-004
                    21 -8.644135515845014E-013
                    22  3.510980128430202E-004
                    23  3.985728034875506E-004
                    24  1.384510367133601E-012
                    25 -1.168145405634768E-004
                    26 -9.591058982483677E-013
                    27  1.062968377967973E-005
                    28  1.584974471530909E-005
                    29  1.819488515042348E-013
                    30 -3.246678390008176E-013
                    31  1.154091984521500E-006
                    32 -2.977490947445363E-004
                    33  1.618669366392361E-003
                    34  2.096057321626508E-004
                    35 -2.449974641799561E-004
                    36 -1.705740828937742E-012
                    37 -1.548259655690313E-004
                    38 -4.844128818689730E-003
                    39 -6.630196552575265E-013
                    40  3.339107933007660E-004
                    41  1.807799042842162E-004
                    42 -1.260967025415700E-011
                    43 -1.389055304115136E-003
                    44  4.972949898063479E-003
                    45  2.325515124194861E-004
                    46  4.519451602788693E-012
                    47 -1.841269466046679E-005
                    48  1.056858432965198E-004
                    49 -3.071847452607074E-013
                    50  7.539543018173288E-005
                    51 -1.117518404886906E-011
                    52  5.047759807906370E-004
                    53 -3.120268054932354E-004
                    54 -6.842204588560559E-012
                    55 -1.198074311301974E-004
                    56 -1.606799923183783E-012
                    57  7.667141459178962E-006
                    58  4.520271616691144E-005
                    59 -2.312898228441090E-012
                    60 -3.541787617499762E-013
                    61 -1.053835404906255E-005
                    62 -3.837134439512111E-004
                    63 -1.819413423639112E-003
                    64 -4.618859449170460E-005
                    65  1.526879209168272E-003
                    66  3.854121724284084E-012
                    67 -6.238664399080548E-004
                    68  4.597739760382830E-004
                    69 -9.238390130710434E-012
                    70  2.850015999543838E-004
                    71  7.271927674966182E-004
                    72  1.092029279997964E-011
                    73 -1.380747904321884E-003
                    74  4.182510000206466E-004
                    75  8.140648775277214E-005
                    76 -2.839954995495133E-012
                    77 -2.298436483493464E-005
                    78  9.389211592090684E-006
                    79 -5.011842174883938E-012
                    80 -2.303202799460417E-006
                    81  4.790902014840350E-012
                    82  1.018934899710235E-004
                    83 -1.170648254471542E-004
                    84  7.258961128789187E-012
                    85 -1.301266489033857E-004
                    86  2.189202464044344E-012
                    87 -2.726670923043328E-005
                    88  4.438364174379034E-005
                    89  4.207196103928842E-012
                    90  2.262191144103114E-012
                    91  4.494634094329400E-006
                    92 -1.660205486289450E-004
                    93 -1.178635138149778E-003
                    94  1.590627705762669E-004
                    95 -4.879345510003564E-006
                    96  7.046433502025192E-012
                    97  5.895901703506612E-004
                    98  6.521998468157979E-004
                    99  6.961836253262218E-013
                   100  2.944561803253014E-004
                   101  4.279137220504291E-004
                   102  1.048453867976514E-011
                   103  5.410877121333822E-004
                   104 -9.604651803296038E-004
                   105  6.527565560755785E-005
                   106 -1.856671956873687E-012
                   107 -9.949876918736265E-006
                   108  3.016397726195096E-005
                   109  2.282910709512265E-012
                   110  2.662483347659853E-005
                   111  2.327797860368915E-012
                   112 -8.181293689168940E-005
                   113  1.038988265225000E-004
                   114 -8.162888526864496E-012
                   115 -6.026861852947184E-005
                   116  5.675320298451934E-013
                   117  2.230046959705092E-005
                   118  3.666504206984136E-006
                   119  3.053290578432569E-012
                   120 -3.353292108437982E-013
                   121 -1.651792306959919E-005
                   122 -2.302169566318607E-004
                   123 -4.441553103703603E-004
                   124  1.497961140397564E-004
                   125  3.054627301313433E-004
                   126 -5.683177644185780E-012
                   127 -4.365207856697784E-007
                   128 -5.147984213270957E-004
                   129  3.852441053241641E-012
                   130  1.457095749538954E-004
                   131  5.089620013857245E-004
                   132 -5.850288408586737E-012
                   133  1.739257837929886E-004
                   134  1.505398985425263E-003
                   135 -3.675764041733705E-005
                   136  3.703444929300577E-013
                   137 -1.405800701053155E-006
                   138 -7.359034693785162E-006
                   139  1.051878428763692E-012
                   140 -3.291585087725105E-004
                   141  2.200831100096427E-012
                   142  2.057450875036934E-004
                   143  2.536813316096792E-006
                   144 -4.778945680031820E-012
                   145 -6.258205628317475E-005
                   146 -1.292320006360723E-013
                   147 -6.452825009923454E-006
                   148 -1.474567514665842E-005
                   149  1.057062203846417E-012
                   150 -1.851808761068570E-012
                   151 -9.959111639949664E-006
                   152 -1.750479314063292E-004
                   153 -2.471083546060767E-004
                   154  6.415607344281467E-005
                   155  3.221087187923689E-004
                   156 -9.020459992223748E-012
                   157 -2.258144855971858E-005
                   158 -5.023639527224336E-004
                   159  1.674383698575898E-012
                   160 -1.738346967126637E-005
                   161  1.537321525080491E-004
                   162 -6.627330880381400E-012
                   163  5.360092288760576E-004
                   164  1.001514416159816E-004
                   165 -3.390779383960251E-006
                   166  8.349875122045067E-013
                   167  3.504353701114609E-006
                   168 -1.678421340748585E-007
                   169 -1.141549641718900E-012
                   170 -9.953735454869027E-005
                   171  1.915001812745436E-012
                   172 -7.137354267285919E-005
                   173  3.681149277254400E-005
                   174  3.953108896520905E-012
                   175 -2.321703532938375E-005
                   176  1.845405043897413E-012
                   177 -1.664502552384862E-005
                   178 -3.489742020457902E-006
                   179  1.755198042172628E-012
                   180  3.855049709286118E-013
                   181  8.580104195229027E-007
                   182 -1.522636873814663E-004
                   183 -4.286768782469913E-004
                   184  4.508668528282344E-005
                   185  2.159269986996802E-004
                   186  2.139973779850333E-012
                   187 -2.504253760326475E-005
                   188 -5.018285881642781E-005
                   189 -5.309007267271886E-014
                   190  1.271684187949693E-004
                   191  5.055723511437199E-005
                   192  5.330144133833741E-012
                   193  7.994325294565269E-004
                   194 -8.579854368150495E-005
                   195  1.375593729702389E-005
                   196 -5.392620412112338E-013
                   197  3.766742518667948E-006
                   198  5.885499590591526E-006
                   199 -4.986035287905831E-012
                   200  5.506985916021889E-005
                   201 -7.092693414977085E-012
                   202 -1.104278682988619E-004
                   203  5.932435743489116E-005
                   204  2.062861476208161E-012
                   205 -7.337850556214146E-006
                   206 -8.090499326754731E-013
                   207  6.539421880809029E-006
                   208 -1.719947575070519E-006
                   209 -3.627541137374591E-013
                   210 -1.514703377650440E-012
                   211 -2.034854536355439E-006
                   212  1.689000820178932E-004
                   213 -1.846052395863799E-004
                   214  1.661172818121820E-012
                   215  2.046642549740450E-004
                   216  1.896628198386087E-004
                   217  1.307440766131264E-003
                   218 -1.253881315471056E-003
                   219 -7.093085264316414E-013
                   220 -3.979052368002795E-004
                   221  2.530392161165387E-004
                   222 -3.972395245963671E-004
                   223 -5.564098531906810E-004
                   224  9.816487673193730E-013
                   225  1.478217157256209E-006
                   226 -5.507725391505477E-005
                   227 -3.314203492729714E-004
                   228 -3.642821760267793E-004
                   229  5.643466287457940E-012
                   230 -1.473451236689057E-006
                   231 -2.574949870364215E-005
                   232 -9.116749838957092E-005
                   233 -4.924172273616084E-004
                   234 -3.987829332854275E-013
                   235  3.780864930203575E-006
                   236  2.590921319962511E-007
                   237 -1.539376587452346E-004
                   238 -4.143051565826389E-004
                   239 -2.784655554199774E-012
                   240  3.639406774102887E-006
                   241  2.024328538207068E-006
                   242  2.263257224119852E-005
                   243 -6.844378679017714E-005
                   244  2.680606001859695E-012
                   245 -3.558735654702422E-007
                   246  1.857755654719710E-005
 Sym= __2_A__
 Ene=   2.00000000000000     
 Spin= Alpha
 Occup=    1.00000000000000     
                     1 -5.358661795377360E-005
                     2 -3.258834059330645E-004
                     3  2.775982623573549E-003
                     4  1.452159135638103E-004
                     5  1.305674298361960E-003
                     6  1.880322551172148E-012
                     7 -2.075458815121229E-004
                     8  3.134641375398462E-003
                     9  5.118238979002602E-013
                    10 -3.915339218233134E-005
                    11 -8.922570343349033E-005
                    12 -5.798833804299412E-012
                    13  8.452337066162126E-005
                    14 -4.766829511085281E-004
                    15  3.651125107149421E-005
                    16  1.179933997577581E-012
                    17  4.252587185828312E-007
                    18  6.207194081337242E-005
                    19  4.174089852827165E-014
                    20 -1.245279862745789E-004
                    21 -1.191738072817748E-012
                    22  1.379354505958117E-005
                    23 -2.281840279687252E-004
                    24  5.190380610174859E-013
                    25  1.711014918709413E-004
                    26 -1.499242635830248E-012
                    27 -9.779331744439312E-006
                    28 -1.244345004260330E-005
                    29 -3.149945378559321E-013
                    30  1.064777734996510E-012
                    31 -1.335658990978382E-005
                    32   1.00101915139571     
                    33  9.409891319629236E-003
                    34  2.720825818250345E-003
                    35 -8.029128675364006E-003
                    36 -7.808378286651680E-013
                    37 -9.258198994372633E-005
                    38 -3.919429263143781E-003
                    39  4.887220653687631E-012
                    40  6.567114712274108E-005
                    41  6.194421229256802E-004
                    42  1.980912928345872E-012
                    43  6.376364606946245E-005
                    44  4.347957990830671E-003
                    45  4.705543412590372E-004
                    46  3.937996389629121E-013
                    47 -6.599101171704981E-006
                    48 -4.033599592604398E-004
                    49  2.824092561871211E-012
                    50  5.431574897260944E-004
                    51 -3.808310369620915E-012
                    52  5.606746539075037E-005
                    53  9.371902767204508E-004
                    54  8.951477718786865E-012
                    55  3.829156457818336E-004
                    56  1.844406476277876E-012
                    57 -1.251323634170399E-006
                    58 -1.829878486622653E-004
                    59 -9.782103422030308E-013
                    60  9.994085708223090E-013
                    61 -1.162857100070935E-006
                    62  8.549754138902198E-003
                    63 -2.087469803176136E-003
                    64 -2.862361378174823E-004
                    65  3.073289255549026E-003
                    66 -1.408369546968207E-011
                    67  1.155337603304910E-005
                    68  7.283077886421256E-005
                    69  1.705340959121106E-011
                    70  7.000215313186873E-004
                    71 -6.891758789151799E-006
                    72  5.952126208706396E-012
                    73 -2.070475362496705E-003
                    74  7.264416767405942E-005
                    75 -9.966907396976484E-006
                    76 -2.824086612670774E-012
                    77  3.975438574879914E-006
                    78  2.656938435751914E-005
                    79 -6.180072136193376E-013
                    80  7.186502953353385E-004
                    81  6.172649918029707E-013
                    82 -3.865029751623176E-004
                    83 -4.742346335310080E-005
                    84  3.199817275568480E-012
                    85  7.560265021284399E-005
                    86  2.700971366447392E-012
                    87  4.449794904924977E-005
                    88 -1.319557579146777E-004
                    89  3.130278536893658E-012
                    90  3.972918266727749E-012
                    91  4.771281168820258E-005
                    92  9.011741777227297E-003
                    93 -2.115020730552422E-003
                    94 -2.793199660597186E-004
                    95  3.037358464713269E-003
                    96 -1.831248093525609E-012
                    97  1.319457130535155E-005
                    98  8.501547569422613E-005
                    99 -6.255197393738066E-013
                   100 -6.475237110639857E-004
                   101  3.216231571480939E-005
                   102  3.567110467765017E-012
                   103  2.084365232633413E-003
                   104  8.992341579531625E-005
                   105 -1.132971641859930E-005
                   106 -2.008429487543491E-012
                   107 -9.481328278559258E-006
                   108  2.963192861366836E-005
                   109  3.214849080568269E-012
                   110  7.533156583765206E-004
                   111  1.053956544726682E-011
                   112  3.853169685978955E-004
                   113 -3.408268496514770E-005
                   114 -4.019485507208217E-014
                   115  7.391362572847192E-005
                   116  1.330654708018226E-012
                   117 -4.323178392646561E-005
                   118 -1.307656858621964E-004
                   119 -3.176337625622739E-012
                   120 -2.388228906344154E-012
                   121 -4.552199692151320E-005
                   122 -1.977809838914394E-004
                   123 -6.994034681637385E-004
                   124  2.233574546956449E-004
                   125 -9.316042446734143E-005
                   126  4.141319290776181E-012
                   127 -5.321010326409872E-006
                   128 -3.204137625634969E-004
                   129 -5.789038838953394E-013
                   130 -5.182724574171006E-005
                   131  5.281773897341842E-004
                   132 -1.096411959330054E-011
                   133  3.110763431077482E-004
                   134  7.526593398766504E-004
                   135 -1.230317772935766E-005
                   136 -2.746566238038245E-012
                   137  5.266584557844647E-005
                   138  1.426190050794375E-005
                   139  4.763084664638544E-012
                   140 -2.783296347571747E-004
                   141  3.172489068739575E-012
                   142 -1.880701712969389E-004
                   143 -4.524411009584594E-006
                   144 -7.143343517226016E-012
                   145  2.142490516385929E-006
                   146  7.602298525816208E-015
                   147 -4.696382961349670E-005
                   148 -4.320722361103258E-005
                   149 -7.154488949256104E-013
                   150  8.959624229377471E-013
                   151 -5.033575031982724E-006
                   152 -1.680895459325797E-004
                   153 -6.969718266435059E-004
                   154  2.278638177197994E-004
                   155 -1.221836505458379E-004
                   156  1.007980794364101E-011
                   157  4.209176063714930E-006
                   158 -3.248842106746763E-004
                   159 -1.087463948446459E-011
                   160  3.531964447251568E-005