[Molden Format]
[Atoms] AU
  N     1    7     0.0000000000    0.0000000000   -4.2907334100        
  C     2    6     0.0000000000    0.0000000000   -1.7772236300        
  C     3    6     0.0000000000   -2.3389203600   -0.4111016300        
  C     4    6     0.0000000000    2.3389203600   -0.4111016300        
  C     5    6     0.0000000000   -2.2998668500    2.1639215300        
  C     6    6     0.0000000000    2.2998668500    2.1639215300        
  C     7    6     0.0000000000    0.0000000000    3.4755251800        
  H     8    1     0.0000000000   -2.2516208400   -5.6797945000        
  H     9    1     0.0000000000    1.7691306600   -5.3821385500        
  H    10    1     0.0000000000   -4.0745407300   -1.4447408500        
  H    11    1     0.0000000000    4.0745407300   -1.4447408500        
  H    12    1     0.0000000000   -4.0420632100    3.1963889500        
  H    13    1     0.0000000000    4.0420632100    3.1963889500        
  H    14    1     0.0000000000    0.0000000000    5.5020335600        
[5D]
[7F]
[GTO]
  1  0
   s    12 1.00
  0.114200D+05  0.172695D-04
  0.171200D+04  0.134411D-03
  0.389300D+03  0.694561D-03
  0.110000D+03  0.278531D-02
  0.355700D+02  0.863457D-02
  0.125400D+02  0.199805D-01
  0.464400D+01  0.262908D-01
  0.129300D+01 -0.243845D-01
  0.511800D+00 -0.924934D-01
  0.178700D+00 -0.339683D+00
  0.246240D-01  0.345111D+00
  0.112530D-01  0.752750D+00
   s    10 1.00
  0.114200D+05  0.523000D-03
  0.171200D+04  0.404500D-02
  0.389300D+03  0.207750D-01
  0.110000D+03  0.807269D-01
  0.355700D+02  0.233074D+00
  0.125400D+02  0.433501D+00
  0.464400D+01  0.347472D+00
  0.129300D+01  0.412620D-01
  0.511800D+00 -0.850799D-02
  0.178700D+00  0.238400D-02
   s    10 1.00
  0.114200D+05 -0.115000D-03
  0.171200D+04 -0.895000D-03
  0.389300D+03 -0.462400D-02
  0.110000D+03 -0.185280D-01
  0.355700D+02 -0.573390D-01
  0.125400D+02 -0.132076D+00
  0.464400D+01 -0.172510D+00
  0.129300D+01  0.151814D+00
  0.511800D+00  0.599944D+00
  0.178700D+00  0.387462D+00
   s     1 1.00
  0.129300D+01  0.100000D+01
   s     1 1.00
  0.178700D+00  0.100000D+01
   p     5 1.00
  0.266300D+02  0.146700D-01
  0.594800D+01  0.917640D-01
  0.174200D+01  0.298683D+00
  0.555000D+00  0.498487D+00
  0.172500D+00  0.337023D+00
   p     1 1.00
  0.174200D+01  0.100000D+01
   p     1 1.00
  0.555000D+00  0.100000D+01
   d     1 1.00
  0.165400D+01  0.100000D+01
   d     1 1.00
  0.469000D+00  0.100000D+01
   f     1 1.00
  0.109300D+01  0.100000D+01
  
  2  0
   s    10 1.00
  0.823600D+04  0.531000D-03
  0.123500D+04  0.410800D-02
  0.280800D+03  0.210870D-01
  0.792700D+02  0.818530D-01
  0.255900D+02  0.234817D+00
  0.899700D+01  0.434401D+00
  0.331900D+01  0.346129D+00
  0.905900D+00  0.393780D-01
  0.364300D+00 -0.898300D-02
  0.128500D+00  0.238500D-02
   s    10 1.00
  0.823600D+04 -0.113000D-03
  0.123500D+04 -0.878000D-03
  0.280800D+03 -0.454000D-02
  0.792700D+02 -0.181330D-01
  0.255900D+02 -0.557600D-01
  0.899700D+01 -0.126895D+00
  0.331900D+01 -0.170352D+00
  0.905900D+00  0.140382D+00
  0.364300D+00  0.598684D+00
  0.128500D+00  0.395389D+00
   s     1 1.00
  0.905900D+00  0.100000D+01
   s     1 1.00
  0.364300D+00  0.100000D+01
   p     5 1.00
  0.187100D+02  0.140310D-01
  0.413300D+01  0.868660D-01
  0.120000D+01  0.290216D+00
  0.382700D+00  0.501008D+00
  0.120900D+00  0.343406D+00
   p     1 1.00
  0.382700D+00  0.100000D+01
   p     1 1.00
  0.120900D+00  0.100000D+01
   d     1 1.00
  0.109700D+01  0.100000D+01
   d     1 1.00
  0.318000D+00  0.100000D+01
   f     1 1.00
  0.761000D+00  0.100000D+01
  
  3  0
   s    10 1.00
  0.823600D+04  0.531000D-03
  0.123500D+04  0.410800D-02
  0.280800D+03  0.210870D-01
  0.792700D+02  0.818530D-01
  0.255900D+02  0.234817D+00
  0.899700D+01  0.434401D+00
  0.331900D+01  0.346129D+00
  0.905900D+00  0.393780D-01
  0.364300D+00 -0.898300D-02
  0.128500D+00  0.238500D-02
   s    10 1.00
  0.823600D+04 -0.113000D-03
  0.123500D+04 -0.878000D-03
  0.280800D+03 -0.454000D-02
  0.792700D+02 -0.181330D-01
  0.255900D+02 -0.557600D-01
  0.899700D+01 -0.126895D+00
  0.331900D+01 -0.170352D+00
  0.905900D+00  0.140382D+00
  0.364300D+00  0.598684D+00
  0.128500D+00  0.395389D+00
   s     1 1.00
  0.905900D+00  0.100000D+01
   s     1 1.00
  0.364300D+00  0.100000D+01
   p     5 1.00
  0.187100D+02  0.140310D-01
  0.413300D+01  0.868660D-01
  0.120000D+01  0.290216D+00
  0.382700D+00  0.501008D+00
  0.120900D+00  0.343406D+00
   p     1 1.00
  0.382700D+00  0.100000D+01
   p     1 1.00
  0.120900D+00  0.100000D+01
   d     1 1.00
  0.109700D+01  0.100000D+01
   d     1 1.00
  0.318000D+00  0.100000D+01
   f     1 1.00
  0.761000D+00  0.100000D+01
  
  4  0
   s    10 1.00
  0.823600D+04  0.531000D-03
  0.123500D+04  0.410800D-02
  0.280800D+03  0.210870D-01
  0.792700D+02  0.818530D-01
  0.255900D+02  0.234817D+00
  0.899700D+01  0.434401D+00
  0.331900D+01  0.346129D+00
  0.905900D+00  0.393780D-01
  0.364300D+00 -0.898300D-02
  0.128500D+00  0.238500D-02
   s    10 1.00
  0.823600D+04 -0.113000D-03
  0.123500D+04 -0.878000D-03
  0.280800D+03 -0.454000D-02
  0.792700D+02 -0.181330D-01
  0.255900D+02 -0.557600D-01
  0.899700D+01 -0.126895D+00
  0.331900D+01 -0.170352D+00
  0.905900D+00  0.140382D+00
  0.364300D+00  0.598684D+00
  0.128500D+00  0.395389D+00
   s     1 1.00
  0.905900D+00  0.100000D+01
   s     1 1.00
  0.364300D+00  0.100000D+01
   p     5 1.00
  0.187100D+02  0.140310D-01
  0.413300D+01  0.868660D-01
  0.120000D+01  0.290216D+00
  0.382700D+00  0.501008D+00
  0.120900D+00  0.343406D+00
   p     1 1.00
  0.382700D+00  0.100000D+01
   p     1 1.00
  0.120900D+00  0.100000D+01
   d     1 1.00
  0.109700D+01  0.100000D+01
   d     1 1.00
  0.318000D+00  0.100000D+01
   f     1 1.00
  0.761000D+00  0.100000D+01
  
  5  0
   s    10 1.00
  0.823600D+04  0.531000D-03
  0.123500D+04  0.410800D-02
  0.280800D+03  0.210870D-01
  0.792700D+02  0.818530D-01
  0.255900D+02  0.234817D+00
  0.899700D+01  0.434401D+00
  0.331900D+01  0.346129D+00
  0.905900D+00  0.393780D-01
  0.364300D+00 -0.898300D-02
  0.128500D+00  0.238500D-02
   s    10 1.00
  0.823600D+04 -0.113000D-03
  0.123500D+04 -0.878000D-03
  0.280800D+03 -0.454000D-02
  0.792700D+02 -0.181330D-01
  0.255900D+02 -0.557600D-01
  0.899700D+01 -0.126895D+00
  0.331900D+01 -0.170352D+00
  0.905900D+00  0.140382D+00
  0.364300D+00  0.598684D+00
  0.128500D+00  0.395389D+00
   s     1 1.00
  0.905900D+00  0.100000D+01
   s     1 1.00
  0.364300D+00  0.100000D+01
   p     5 1.00
  0.187100D+02  0.140310D-01
  0.413300D+01  0.868660D-01
  0.120000D+01  0.290216D+00
  0.382700D+00  0.501008D+00
  0.120900D+00  0.343406D+00
   p     1 1.00
  0.382700D+00  0.100000D+01
   p     1 1.00
  0.120900D+00  0.100000D+01
   d     1 1.00
  0.109700D+01  0.100000D+01
   d     1 1.00
  0.318000D+00  0.100000D+01
   f     1 1.00
  0.761000D+00  0.100000D+01
  
  6  0
   s    10 1.00
  0.823600D+04  0.531000D-03
  0.123500D+04  0.410800D-02
  0.280800D+03  0.210870D-01
  0.792700D+02  0.818530D-01
  0.255900D+02  0.234817D+00
  0.899700D+01  0.434401D+00
  0.331900D+01  0.346129D+00
  0.905900D+00  0.393780D-01
  0.364300D+00 -0.898300D-02
  0.128500D+00  0.238500D-02
   s    10 1.00
  0.823600D+04 -0.113000D-03
  0.123500D+04 -0.878000D-03
  0.280800D+03 -0.454000D-02
  0.792700D+02 -0.181330D-01
  0.255900D+02 -0.557600D-01
  0.899700D+01 -0.126895D+00
  0.331900D+01 -0.170352D+00
  0.905900D+00  0.140382D+00
  0.364300D+00  0.598684D+00
  0.128500D+00  0.395389D+00
   s     1 1.00
  0.905900D+00  0.100000D+01
   s     1 1.00
  0.364300D+00  0.100000D+01
   p     5 1.00
  0.187100D+02  0.140310D-01
  0.413300D+01  0.868660D-01
  0.120000D+01  0.290216D+00
  0.382700D+00  0.501008D+00
  0.120900D+00  0.343406D+00
   p     1 1.00
  0.382700D+00  0.100000D+01
   p     1 1.00
  0.120900D+00  0.100000D+01
   d     1 1.00
  0.109700D+01  0.100000D+01
   d     1 1.00
  0.318000D+00  0.100000D+01
   f     1 1.00
  0.761000D+00  0.100000D+01
  
  7  0
   s    10 1.00
  0.823600D+04  0.531000D-03
  0.123500D+04  0.410800D-02
  0.280800D+03  0.210870D-01
  0.792700D+02  0.818530D-01
  0.255900D+02  0.234817D+00
  0.899700D+01  0.434401D+00
  0.331900D+01  0.346129D+00
  0.905900D+00  0.393780D-01
  0.364300D+00 -0.898300D-02
  0.128500D+00  0.238500D-02
   s    10 1.00
  0.823600D+04 -0.113000D-03
  0.123500D+04 -0.878000D-03
  0.280800D+03 -0.454000D-02
  0.792700D+02 -0.181330D-01
  0.255900D+02 -0.557600D-01
  0.899700D+01 -0.126895D+00
  0.331900D+01 -0.170352D+00
  0.905900D+00  0.140382D+00
  0.364300D+00  0.598684D+00
  0.128500D+00  0.395389D+00
   s     1 1.00
  0.905900D+00  0.100000D+01
   s     1 1.00
  0.364300D+00  0.100000D+01
   p     5 1.00
  0.187100D+02  0.140310D-01
  0.413300D+01  0.868660D-01
  0.120000D+01  0.290216D+00
  0.382700D+00  0.501008D+00
  0.120900D+00  0.343406D+00
   p     1 1.00
  0.382700D+00  0.100000D+01
   p     1 1.00
  0.120900D+00  0.100000D+01
   d     1 1.00
  0.109700D+01  0.100000D+01
   d     1 1.00
  0.318000D+00  0.100000D+01
   f     1 1.00
  0.761000D+00  0.100000D+01
  
  8  0
   s     4 1.00
  0.130100D+02  0.196850D-01
  0.196200D+01  0.137977D+00
  0.444600D+00  0.478148D+00
  0.122000D+00  0.501240D+00
   s     1 1.00
  0.122000D+00  0.100000D+01
   p     1 1.00
  0.727000D+00  0.100000D+01
  
  9  0
   s     4 1.00
  0.130100D+02  0.196850D-01
  0.196200D+01  0.137977D+00
  0.444600D+00  0.478148D+00
  0.122000D+00  0.501240D+00
   s     1 1.00
  0.122000D+00  0.100000D+01
   p     1 1.00
  0.727000D+00  0.100000D+01
  
 10  0
   s     4 1.00
  0.130100D+02  0.196850D-01
  0.196200D+01  0.137977D+00
  0.444600D+00  0.478148D+00
  0.122000D+00  0.501240D+00
   s     1 1.00
  0.122000D+00  0.100000D+01
   p     1 1.00
  0.727000D+00  0.100000D+01
  
 11  0
   s     4 1.00
  0.130100D+02  0.196850D-01
  0.196200D+01  0.137977D+00
  0.444600D+00  0.478148D+00
  0.122000D+00  0.501240D+00
   s     1 1.00
  0.122000D+00  0.100000D+01
   p     1 1.00
  0.727000D+00  0.100000D+01
  
 12  0
   s     4 1.00
  0.130100D+02  0.196850D-01
  0.196200D+01  0.137977D+00
  0.444600D+00  0.478148D+00
  0.122000D+00  0.501240D+00
   s     1 1.00
  0.122000D+00  0.100000D+01
   p     1 1.00
  0.727000D+00  0.100000D+01
  
 13  0
   s     4 1.00
  0.130100D+02  0.196850D-01
  0.196200D+01  0.137977D+00
  0.444600D+00  0.478148D+00
  0.122000D+00  0.501240D+00
   s     1 1.00
  0.122000D+00  0.100000D+01
   p     1 1.00
  0.727000D+00  0.100000D+01
  
 14  0
   s     4 1.00
  0.130100D+02  0.196850D-01
  0.196200D+01  0.137977D+00
  0.444600D+00  0.478148D+00
  0.122000D+00  0.501240D+00
   s     1 1.00
  0.122000D+00  0.100000D+01
   p     1 1.00
  0.727000D+00  0.100000D+01
  
[MO]
 Sym= __1_a__
 Ene=  0.000000000000000E+000
 Spin= Alpha
 Occup=    2.00000000000000     
                     1  2.348972853408820E-005
                     2  0.998527793011896     
                     3  2.608256169739670E-003
                     4  1.642488666574760E-003
                     5  3.947342026234690E-003
                     6 -9.875102230134160E-012
                     7  2.496121422511820E-003
                     8  5.791470227052690E-003
                     9  3.218247501412880E-012
                    10 -4.582377968706390E-004
                    11 -4.204892143182210E-004
                    12  5.807025718251240E-012
                    13 -1.628411014620960E-003
                    14 -1.254300902439750E-003
                    15  2.402321800981705E-004
                    16 -7.330947652537110E-013
                    17 -4.879384553103090E-005
                    18  9.009613214647820E-006
                    19  1.129922552350020E-012
                    20  1.047489162964084E-004
                    21 -8.644135515845010E-013
                    22  3.510980128430200E-004
                    23  3.985728034875500E-004
                    24  1.384510367133600E-012
                    25 -1.168145405634767E-004
                    26 -9.591058982483677E-013
                    27  1.062968377967973E-005
                    28  1.584974471530910E-005
                    29  1.819488515042350E-013
                    30 -3.246678390008181E-013
                    31  1.154091984521501E-006
                    32 -2.977490947445360E-004
                    33  1.618669366392360E-003
                    34  2.096057321626510E-004
                    35 -2.449974641799560E-004
                    36 -1.705740828937740E-012
                    37 -1.548259655690310E-004
                    38 -4.844128818689730E-003
                    39 -6.630196552575260E-013
                    40  3.339107933007660E-004
                    41  1.807799042842160E-004
                    42 -1.260967025415700E-011
                    43 -1.389055304115140E-003
                    44  4.972949898063480E-003
                    45  2.325515124194862E-004
                    46  4.519451602788690E-012
                    47 -1.841269466046680E-005
                    48  1.056858432965198E-004
                    49 -3.071847452607070E-013
                    50  7.539543018173301E-005
                    51 -1.117518404886910E-011
                    52  5.047759807906370E-004
                    53 -3.120268054932360E-004
                    54 -6.842204588560560E-012
                    55 -1.198074311301975E-004
                    56 -1.606799923183781E-012
                    57  7.667141459178955E-006
                    58  4.520271616691140E-005
                    59 -2.312898228441090E-012
                    60 -3.541787617499755E-013
                    61 -1.053835404906256E-005
                    62 -3.837134439512110E-004
                    63 -1.819413423639110E-003
                    64 -4.618859449170460E-005
                    65  1.526879209168270E-003
                    66  3.854121724284080E-012
                    67 -6.238664399080550E-004
                    68  4.597739760382830E-004
                    69 -9.238390130710431E-012
                    70  2.850015999543840E-004
                    71  7.271927674966180E-004
                    72  1.092029279997960E-011
                    73 -1.380747904321880E-003
                    74  4.182510000206470E-004
                    75  8.140648775277219E-005
                    76 -2.839954995495130E-012
                    77 -2.298436483493460E-005
                    78  9.389211592090680E-006
                    79 -5.011842174883940E-012
                    80 -2.303202799460417E-006
                    81  4.790902014840350E-012
                    82  1.018934899710240E-004
                    83 -1.170648254471542E-004
                    84  7.258961128789190E-012
                    85 -1.301266489033856E-004
                    86  2.189202464044344E-012
                    87 -2.726670923043325E-005
                    88  4.438364174379040E-005
                    89  4.207196103928840E-012
                    90  2.262191144103114E-012
                    91  4.494634094329403E-006
                    92 -1.660205486289450E-004
                    93 -1.178635138149780E-003
                    94  1.590627705762670E-004
                    95 -4.879345510003560E-006
                    96  7.046433502025190E-012
                    97  5.895901703506610E-004
                    98  6.521998468157980E-004
                    99  6.961836253262220E-013
                   100  2.944561803253010E-004
                   101  4.279137220504290E-004
                   102  1.048453867976510E-011
                   103  5.410877121333820E-004
                   104 -9.604651803296040E-004
                   105  6.527565560755779E-005
                   106 -1.856671956873690E-012
                   107 -9.949876918736270E-006
                   108  3.016397726195100E-005
                   109  2.282910709512260E-012
                   110  2.662483347659852E-005
                   111  2.327797860368920E-012
                   112 -8.181293689168940E-005
                   113  1.038988265225000E-004
                   114 -8.162888526864501E-012
                   115 -6.026861852947179E-005
                   116  5.675320298451936E-013
                   117  2.230046959705090E-005
                   118  3.666504206984140E-006
                   119  3.053290578432570E-012
                   120 -3.353292108437977E-013
                   121 -1.651792306959920E-005
                   122 -2.302169566318610E-004
                   123 -4.441553103703600E-004
                   124  1.497961140397560E-004
                   125  3.054627301313430E-004
                   126 -5.683177644185780E-012
                   127 -4.365207856697780E-007
                   128 -5.147984213270959E-004
                   129  3.852441053241640E-012
                   130  1.457095749538950E-004
                   131  5.089620013857240E-004
                   132 -5.850288408586740E-012
                   133  1.739257837929890E-004
                   134  1.505398985425260E-003
                   135 -3.675764041733702E-005
                   136  3.703444929300580E-013
                   137 -1.405800701053150E-006
                   138 -7.359034693785160E-006
                   139  1.051878428763690E-012
                   140 -3.291585087725105E-004
                   141  2.200831100096430E-012
                   142  2.057450875036930E-004
                   143  2.536813316096800E-006
                   144 -4.778945680031820E-012
                   145 -6.258205628317474E-005
                   146 -1.292320006360725E-013
                   147 -6.452825009923472E-006
                   148 -1.474567514665842E-005
                   149  1.057062203846420E-012
                   150 -1.851808761068567E-012
                   151 -9.959111639949688E-006
                   152 -1.750479314063290E-004
                   153 -2.471083546060770E-004
                   154  6.415607344281470E-005
                   155  3.221087187923690E-004
                   156 -9.020459992223750E-012
                   157 -2.258144855971860E-005
                   158 -5.023639527224340E-004
                   159  1.674383698575900E-012
                   160 -1.738346967126640E-005
                   161  1.537321525080490E-004
                   162 -6.627330880381400E-012
                   163  5.360092288760580E-004
                   164  1.001514416159820E-004
                   165 -3.390779383960250E-006
                   166  8.349875122045070E-013
                   167  3.504353701114610E-006
                   168 -1.678421340748584E-007
                   169 -1.141549641718900E-012
                   170 -9.953735454869034E-005
                   171  1.915001812745440E-012
                   172 -7.137354267285920E-005
                   173  3.681149277254400E-005
                   174  3.953108896520900E-012
                   175 -2.321703532938375E-005
                   176  1.845405043897414E-012
                   177 -1.664502552384863E-005
                   178 -3.489742020457900E-006
                   179  1.755198042172630E-012
                   180  3.855049709286111E-013
                   181  8.580104195229003E-007
                   182 -1.522636873814660E-004
                   183 -4.286768782469910E-004
                   184  4.508668528282340E-005
                   185  2.159269986996800E-004
                   186  2.139973779850330E-012
                   187 -2.504253760326470E-005
                   188 -5.018285881642780E-005
                   189 -5.309007267271890E-014
                   190  1.271684187949690E-004
                   191  5.055723511437200E-005
                   192  5.330144133833740E-012
                   193  7.994325294565270E-004
                   194 -8.579854368150489E-005
                   195  1.375593729702389E-005
                   196 -5.392620412112340E-013
                   197  3.766742518667950E-006
                   198  5.885499590591520E-006
                   199 -4.986035287905830E-012
                   200  5.506985916021897E-005
                   201 -7.092693414977090E-012
                   202 -1.104278682988620E-004
                   203  5.932435743489120E-005
                   204  2.062861476208160E-012
                   205 -7.337850556214140E-006
                   206 -8.090499326754731E-013
                   207  6.539421880809004E-006
                   208 -1.719947575070520E-006
                   209 -3.627541137374590E-013
                   210 -1.514703377650440E-012
                   211 -2.034854536355438E-006
                   212  1.689000820178930E-004
                   213 -1.846052395863800E-004
                   214  1.661172818121820E-012
                   215  2.046642549740450E-004
                   216  1.896628198386090E-004
                   217  1.307440766131260E-003
                   218 -1.253881315471060E-003
                   219 -7.093085264316410E-013
                   220 -3.979052368002800E-004
                   221  2.530392161165390E-004
                   222 -3.972395245963670E-004
                   223 -5.564098531906810E-004
                   224  9.816487673193730E-013
                   225  1.478217157256210E-006
                   226 -5.507725391505480E-005
                   227 -3.314203492729710E-004
                   228 -3.642821760267790E-004
                   229  5.643466287457940E-012
                   230 -1.473451236689060E-006
                   231 -2.574949870364220E-005
                   232 -9.116749838957090E-005
                   233 -4.924172273616080E-004
                   234 -3.987829332854280E-013
                   235  3.780864930203580E-006
                   236  2.590921319962510E-007
                   237 -1.539376587452350E-004
                   238 -4.143051565826390E-004
                   239 -2.784655554199770E-012
                   240  3.639406774102890E-006
                   241  2.024328538207070E-006
                   242  2.263257224119850E-005
                   243 -6.844378679017710E-005
                   244  2.680606001859700E-012
                   245 -3.558735654702420E-007
                   246  1.857755654719710E-005
 Sym= __2_a__
 Ene=  0.000000000000000E+000
 Spin= Alpha
 Occup=    2.00000000000000     
                     1 -5.358661795377360E-005
                     2 -3.258834059330650E-004
                     3  2.775982623573550E-003
                     4  1.452159135638100E-004
                     5  1.305674298361960E-003
                     6  1.880322551172150E-012
                     7 -2.075458815121230E-004
                     8  3.134641375398460E-003
                     9  5.118238979002600E-013
                    10 -3.915339218233130E-005
                    11 -8.922570343349030E-005
                    12 -5.798833804299410E-012
                    13  8.452337066162130E-005
                    14 -4.766829511085280E-004
                    15  3.651125107149421E-005
                    16  1.179933997577580E-012
                    17  4.252587185828310E-007
                    18  6.207194081337239E-005
                    19  4.174089852827170E-014
                    20 -1.245279862745790E-004
                    21 -1.191738072817750E-012
                    22  1.379354505958120E-005
                    23 -2.281840279687260E-004
                    24  5.190380610174860E-013
                    25  1.711014918709412E-004
                    26 -1.499242635830251E-012
                    27 -9.779331744439342E-006
                    28 -1.244345004260330E-005
                    29 -3.149945378559320E-013
                    30  1.064777734996510E-012
                    31 -1.335658990978380E-005
                    32   1.00101915139571     
                    33  9.409891319629240E-003
                    34  2.720825818250350E-003
                    35 -8.029128675364009E-003
                    36 -7.808378286651680E-013
                    37 -9.258198994372630E-005
                    38 -3.919429263143780E-003
                    39  4.887220653687630E-012
                    40  6.567114712274110E-005
                    41  6.194421229256800E-004
                    42  1.980912928345870E-012
                    43  6.376364606946239E-005
                    44  4.347957990830670E-003
                    45  4.705543412590369E-004
                    46  3.937996389629120E-013
                    47 -6.599101171704980E-006
                    48 -4.033599592604400E-004
                    49  2.824092561871210E-012
                    50  5.431574897260944E-004
                    51 -3.808310369620920E-012
                    52  5.606746539075040E-005
                    53  9.371902767204500E-004
                    54  8.951477718786870E-012
                    55  3.829156457818336E-004
                    56  1.844406476277873E-012
                    57 -1.251323634170398E-006
                    58 -1.829878486622652E-004
                    59 -9.782103422030310E-013
                    60  9.994085708223086E-013
                    61 -1.162857100070934E-006
                    62  8.549754138902200E-003
                    63 -2.087469803176140E-003
                    64 -2.862361378174820E-004
                    65  3.073289255549030E-003
                    66 -1.408369546968210E-011
                    67  1.155337603304910E-005
                    68  7.283077886421261E-005
                    69  1.705340959121110E-011
                    70  7.000215313186870E-004
                    71 -6.891758789151800E-006
                    72  5.952126208706400E-012
                    73 -2.070475362496700E-003
                    74  7.264416767405940E-005
                    75 -9.966907396976474E-006
                    76 -2.824086612670770E-012
                    77  3.975438574879910E-006
                    78  2.656938435751920E-005
                    79 -6.180072136193380E-013
                    80  7.186502953353389E-004
                    81  6.172649918029710E-013
                    82 -3.865029751623180E-004
                    83 -4.742346335310080E-005
                    84  3.199817275568480E-012
                    85  7.560265021284388E-005
                    86  2.700971366447389E-012
                    87  4.449794904924980E-005
                    88 -1.319557579146776E-004
                    89  3.130278536893660E-012
                    90  3.972918266727757E-012
                    91  4.771281168820256E-005
                    92  9.011741777227300E-003
                    93 -2.115020730552420E-003
                    94 -2.793199660597190E-004
                    95  3.037358464713270E-003
                    96 -1.831248093525610E-012
                    97  1.319457130535160E-005
                    98  8.501547569422610E-005
                    99 -6.255197393738070E-013
                   100 -6.475237110639860E-004
                   101  3.216231571480940E-005
                   102  3.567110467765020E-012
                   103  2.084365232633410E-003
                   104  8.992341579531629E-005
                   105 -1.132971641859932E-005
                   106 -2.008429487543490E-012
                   107 -9.481328278559260E-006
                   108  2.963192861366840E-005
                   109  3.214849080568270E-012
                   110  7.533156583765198E-004
                   111  1.053956544726680E-011
                   112  3.853169685978950E-004
                   113 -3.408268496514780E-005
                   114 -4.019485507208220E-014
                   115  7.391362572847198E-005
                   116  1.330654708018228E-012
                   117 -4.323178392646561E-005
                   118 -1.307656858621964E-004
                   119 -3.176337625622740E-012
                   120 -2.388228906344149E-012
                   121 -4.552199692151320E-005
                   122 -1.977809838914390E-004
                   123 -6.994034681637381E-004
                   124  2.233574546956450E-004
                   125 -9.316042446734140E-005
                   126  4.141319290776180E-012
                   127 -5.321010326409870E-006
                   128 -3.204137625634970E-004
                   129 -5.789038838953390E-013
                   130 -5.182724574171010E-005
                   131  5.281773897341840E-004
                   132 -1.096411959330050E-011
                   133  3.110763431077480E-004
                   134  7.526593398766500E-004
                   135 -1.230317772935767E-005
                   136 -2.746566238038240E-012
                   137  5.266584557844650E-005
                   138  1.426190050794376E-005
                   139  4.763084664638540E-012
                   140 -2.783296347571746E-004
                   141  3.172489068739580E-012
                   142 -1.880701712969390E-004
                   143 -4.524411009584600E-006
                   144 -7.143343517226020E-012
                   145  2.142490516385928E-006
                   146  7.602298525816208E-015
                   147 -4.696382961349670E-005
                   148 -4.320722361103260E-005
                   149 -7.154488949256100E-013
                   150  8.959624229377476E-013
                   151 -5.033575031982744E-006
                   152 -1.680895459325800E-004
                   153 -6.969718266435060E-004
                   154  2.278638177197990E-004
                   155 -1.221836505458380E-004
                   156  1.007980794364100E-011
                   157  4.209176063714930E-006
                   158 -3.248842106746760E-004
                   159 -1.087463948446460E-011
                   160  3.531964447251570E-005