[Molden Format]
[Atoms] AU
  N     1    7    -4.4808710700    0.1395634600   -0.2585535100        
  C     2    6    -1.7547363300    0.0111331600   -0.1163602900        
  C     3    6    -0.3710428700    0.2053085800   -2.3465969100        
  C     4    6    -0.4625323800   -0.1615967700    2.1694658200        
  C     5    6     2.2414717200    0.1752641500   -2.2858734600        
  C     6    6     2.1560599600   -0.1421032300    2.2175320500        
  C     7    6     3.5161057300    0.0144113300   -0.0059776900        
  H     8    1    -5.1643077800   -1.6449842000   -0.6531133400        
  H     9    1    -5.1231136400    0.4986282100    1.5402495800        
  H    10    1    -1.3555621700    0.3950973600   -4.1070163700        
  H    11    1    -1.5016005900   -0.3272499300    3.9037710700        
  H    12    1     3.2860278000    0.3141596500   -4.0196731300        
  H    13    1     3.1259601800   -0.2686958500    3.9954988400        
  H    14    1     5.5443304200    0.0158662500    0.0332730100        
[5D]
[7F]
[GTO]
  1  0
   s    12 1.00
  0.114200D+05  0.172695D-04
  0.171200D+04  0.134411D-03
  0.389300D+03  0.694561D-03
  0.110000D+03  0.278531D-02
  0.355700D+02  0.863457D-02
  0.125400D+02  0.199805D-01
  0.464400D+01  0.262908D-01
  0.129300D+01 -0.243845D-01
  0.511800D+00 -0.924934D-01
  0.178700D+00 -0.339683D+00
  0.246240D-01  0.345111D+00
  0.112530D-01  0.752750D+00
   s    10 1.00
  0.114200D+05  0.523000D-03
  0.171200D+04  0.404500D-02
  0.389300D+03  0.207750D-01
  0.110000D+03  0.807269D-01
  0.355700D+02  0.233074D+00
  0.125400D+02  0.433501D+00
  0.464400D+01  0.347472D+00
  0.129300D+01  0.412620D-01
  0.511800D+00 -0.850799D-02
  0.178700D+00  0.238400D-02
   s    10 1.00
  0.114200D+05 -0.115000D-03
  0.171200D+04 -0.895000D-03
  0.389300D+03 -0.462400D-02
  0.110000D+03 -0.185280D-01
  0.355700D+02 -0.573390D-01
  0.125400D+02 -0.132076D+00
  0.464400D+01 -0.172510D+00
  0.129300D+01  0.151814D+00
  0.511800D+00  0.599944D+00
  0.178700D+00  0.387462D+00
   s     1 1.00
  0.129300D+01  0.100000D+01
   s     1 1.00
  0.178700D+00  0.100000D+01
   p     5 1.00
  0.266300D+02  0.146700D-01
  0.594800D+01  0.917640D-01
  0.174200D+01  0.298683D+00
  0.555000D+00  0.498487D+00
  0.172500D+00  0.337023D+00
   p     1 1.00
  0.174200D+01  0.100000D+01
   p     1 1.00
  0.555000D+00  0.100000D+01
   d     1 1.00
  0.165400D+01  0.100000D+01
   d     1 1.00
  0.469000D+00  0.100000D+01
   f     1 1.00
  0.109300D+01  0.100000D+01
  
  2  0
   s    10 1.00
  0.823600D+04  0.531000D-03
  0.123500D+04  0.410800D-02
  0.280800D+03  0.210870D-01
  0.792700D+02  0.818530D-01
  0.255900D+02  0.234817D+00
  0.899700D+01  0.434401D+00
  0.331900D+01  0.346129D+00
  0.905900D+00  0.393780D-01
  0.364300D+00 -0.898300D-02
  0.128500D+00  0.238500D-02
   s    10 1.00
  0.823600D+04 -0.113000D-03
  0.123500D+04 -0.878000D-03
  0.280800D+03 -0.454000D-02
  0.792700D+02 -0.181330D-01
  0.255900D+02 -0.557600D-01
  0.899700D+01 -0.126895D+00
  0.331900D+01 -0.170352D+00
  0.905900D+00  0.140382D+00
  0.364300D+00  0.598684D+00
  0.128500D+00  0.395389D+00
   s     1 1.00
  0.905900D+00  0.100000D+01
   s     1 1.00
  0.364300D+00  0.100000D+01
   p     5 1.00
  0.187100D+02  0.140310D-01
  0.413300D+01  0.868660D-01
  0.120000D+01  0.290216D+00
  0.382700D+00  0.501008D+00
  0.120900D+00  0.343406D+00
   p     1 1.00
  0.382700D+00  0.100000D+01
   p     1 1.00
  0.120900D+00  0.100000D+01
   d     1 1.00
  0.109700D+01  0.100000D+01
   d     1 1.00
  0.318000D+00  0.100000D+01
   f     1 1.00
  0.761000D+00  0.100000D+01
  
  3  0
   s    10 1.00
  0.823600D+04  0.531000D-03
  0.123500D+04  0.410800D-02
  0.280800D+03  0.210870D-01
  0.792700D+02  0.818530D-01
  0.255900D+02  0.234817D+00
  0.899700D+01  0.434401D+00
  0.331900D+01  0.346129D+00
  0.905900D+00  0.393780D-01
  0.364300D+00 -0.898300D-02
  0.128500D+00  0.238500D-02
   s    10 1.00
  0.823600D+04 -0.113000D-03
  0.123500D+04 -0.878000D-03
  0.280800D+03 -0.454000D-02
  0.792700D+02 -0.181330D-01
  0.255900D+02 -0.557600D-01
  0.899700D+01 -0.126895D+00
  0.331900D+01 -0.170352D+00
  0.905900D+00  0.140382D+00
  0.364300D+00  0.598684D+00
  0.128500D+00  0.395389D+00
   s     1 1.00
  0.905900D+00  0.100000D+01
   s     1 1.00
  0.364300D+00  0.100000D+01
   p     5 1.00
  0.187100D+02  0.140310D-01
  0.413300D+01  0.868660D-01
  0.120000D+01  0.290216D+00
  0.382700D+00  0.501008D+00
  0.120900D+00  0.343406D+00
   p     1 1.00
  0.382700D+00  0.100000D+01
   p     1 1.00
  0.120900D+00  0.100000D+01
   d     1 1.00
  0.109700D+01  0.100000D+01
   d     1 1.00
  0.318000D+00  0.100000D+01
   f     1 1.00
  0.761000D+00  0.100000D+01
  
  4  0
   s    10 1.00
  0.823600D+04  0.531000D-03
  0.123500D+04  0.410800D-02
  0.280800D+03  0.210870D-01
  0.792700D+02  0.818530D-01
  0.255900D+02  0.234817D+00
  0.899700D+01  0.434401D+00
  0.331900D+01  0.346129D+00
  0.905900D+00  0.393780D-01
  0.364300D+00 -0.898300D-02
  0.128500D+00  0.238500D-02
   s    10 1.00
  0.823600D+04 -0.113000D-03
  0.123500D+04 -0.878000D-03
  0.280800D+03 -0.454000D-02
  0.792700D+02 -0.181330D-01
  0.255900D+02 -0.557600D-01
  0.899700D+01 -0.126895D+00
  0.331900D+01 -0.170352D+00
  0.905900D+00  0.140382D+00
  0.364300D+00  0.598684D+00
  0.128500D+00  0.395389D+00
   s     1 1.00
  0.905900D+00  0.100000D+01
   s     1 1.00
  0.364300D+00  0.100000D+01
   p     5 1.00
  0.187100D+02  0.140310D-01
  0.413300D+01  0.868660D-01
  0.120000D+01  0.290216D+00
  0.382700D+00  0.501008D+00
  0.120900D+00  0.343406D+00
   p     1 1.00
  0.382700D+00  0.100000D+01
   p     1 1.00
  0.120900D+00  0.100000D+01
   d     1 1.00
  0.109700D+01  0.100000D+01
   d     1 1.00
  0.318000D+00  0.100000D+01
   f     1 1.00
  0.761000D+00  0.100000D+01
  
  5  0
   s    10 1.00
  0.823600D+04  0.531000D-03
  0.123500D+04  0.410800D-02
  0.280800D+03  0.210870D-01
  0.792700D+02  0.818530D-01
  0.255900D+02  0.234817D+00
  0.899700D+01  0.434401D+00
  0.331900D+01  0.346129D+00
  0.905900D+00  0.393780D-01
  0.364300D+00 -0.898300D-02
  0.128500D+00  0.238500D-02
   s    10 1.00
  0.823600D+04 -0.113000D-03
  0.123500D+04 -0.878000D-03
  0.280800D+03 -0.454000D-02
  0.792700D+02 -0.181330D-01
  0.255900D+02 -0.557600D-01
  0.899700D+01 -0.126895D+00
  0.331900D+01 -0.170352D+00
  0.905900D+00  0.140382D+00
  0.364300D+00  0.598684D+00
  0.128500D+00  0.395389D+00
   s     1 1.00
  0.905900D+00  0.100000D+01
   s     1 1.00
  0.364300D+00  0.100000D+01
   p     5 1.00
  0.187100D+02  0.140310D-01
  0.413300D+01  0.868660D-01
  0.120000D+01  0.290216D+00
  0.382700D+00  0.501008D+00
  0.120900D+00  0.343406D+00
   p     1 1.00
  0.382700D+00  0.100000D+01
   p     1 1.00
  0.120900D+00  0.100000D+01
   d     1 1.00
  0.109700D+01  0.100000D+01
   d     1 1.00
  0.318000D+00  0.100000D+01
   f     1 1.00
  0.761000D+00  0.100000D+01
  
  6  0
   s    10 1.00
  0.823600D+04  0.531000D-03
  0.123500D+04  0.410800D-02
  0.280800D+03  0.210870D-01
  0.792700D+02  0.818530D-01
  0.255900D+02  0.234817D+00
  0.899700D+01  0.434401D+00
  0.331900D+01  0.346129D+00
  0.905900D+00  0.393780D-01
  0.364300D+00 -0.898300D-02
  0.128500D+00  0.238500D-02
   s    10 1.00
  0.823600D+04 -0.113000D-03
  0.123500D+04 -0.878000D-03
  0.280800D+03 -0.454000D-02
  0.792700D+02 -0.181330D-01
  0.255900D+02 -0.557600D-01
  0.899700D+01 -0.126895D+00
  0.331900D+01 -0.170352D+00
  0.905900D+00  0.140382D+00
  0.364300D+00  0.598684D+00
  0.128500D+00  0.395389D+00
   s     1 1.00
  0.905900D+00  0.100000D+01
   s     1 1.00
  0.364300D+00  0.100000D+01
   p     5 1.00
  0.187100D+02  0.140310D-01
  0.413300D+01  0.868660D-01
  0.120000D+01  0.290216D+00
  0.382700D+00  0.501008D+00
  0.120900D+00  0.343406D+00
   p     1 1.00
  0.382700D+00  0.100000D+01
   p     1 1.00
  0.120900D+00  0.100000D+01
   d     1 1.00
  0.109700D+01  0.100000D+01
   d     1 1.00
  0.318000D+00  0.100000D+01
   f     1 1.00
  0.761000D+00  0.100000D+01
  
  7  0
   s    10 1.00
  0.823600D+04  0.531000D-03
  0.123500D+04  0.410800D-02
  0.280800D+03  0.210870D-01
  0.792700D+02  0.818530D-01
  0.255900D+02  0.234817D+00
  0.899700D+01  0.434401D+00
  0.331900D+01  0.346129D+00
  0.905900D+00  0.393780D-01
  0.364300D+00 -0.898300D-02
  0.128500D+00  0.238500D-02
   s    10 1.00
  0.823600D+04 -0.113000D-03
  0.123500D+04 -0.878000D-03
  0.280800D+03 -0.454000D-02
  0.792700D+02 -0.181330D-01
  0.255900D+02 -0.557600D-01
  0.899700D+01 -0.126895D+00
  0.331900D+01 -0.170352D+00
  0.905900D+00  0.140382D+00
  0.364300D+00  0.598684D+00
  0.128500D+00  0.395389D+00
   s     1 1.00
  0.905900D+00  0.100000D+01
   s     1 1.00
  0.364300D+00  0.100000D+01
   p     5 1.00
  0.187100D+02  0.140310D-01
  0.413300D+01  0.868660D-01
  0.120000D+01  0.290216D+00
  0.382700D+00  0.501008D+00
  0.120900D+00  0.343406D+00
   p     1 1.00
  0.382700D+00  0.100000D+01
   p     1 1.00
  0.120900D+00  0.100000D+01
   d     1 1.00
  0.109700D+01  0.100000D+01
   d     1 1.00
  0.318000D+00  0.100000D+01
   f     1 1.00
  0.761000D+00  0.100000D+01
  
  8  0
   s     4 1.00
  0.130100D+02  0.196850D-01
  0.196200D+01  0.137977D+00
  0.444600D+00  0.478148D+00
  0.122000D+00  0.501240D+00
   s     1 1.00
  0.122000D+00  0.100000D+01
   p     1 1.00
  0.727000D+00  0.100000D+01
  
  9  0
   s     4 1.00
  0.130100D+02  0.196850D-01
  0.196200D+01  0.137977D+00
  0.444600D+00  0.478148D+00
  0.122000D+00  0.501240D+00
   s     1 1.00
  0.122000D+00  0.100000D+01
   p     1 1.00
  0.727000D+00  0.100000D+01
  
 10  0
   s     4 1.00
  0.130100D+02  0.196850D-01
  0.196200D+01  0.137977D+00
  0.444600D+00  0.478148D+00
  0.122000D+00  0.501240D+00
   s     1 1.00
  0.122000D+00  0.100000D+01
   p     1 1.00
  0.727000D+00  0.100000D+01
  
 11  0
   s     4 1.00
  0.130100D+02  0.196850D-01
  0.196200D+01  0.137977D+00
  0.444600D+00  0.478148D+00
  0.122000D+00  0.501240D+00
   s     1 1.00
  0.122000D+00  0.100000D+01
   p     1 1.00
  0.727000D+00  0.100000D+01
  
 12  0
   s     4 1.00
  0.130100D+02  0.196850D-01
  0.196200D+01  0.137977D+00
  0.444600D+00  0.478148D+00
  0.122000D+00  0.501240D+00
   s     1 1.00
  0.122000D+00  0.100000D+01
   p     1 1.00
  0.727000D+00  0.100000D+01
  
 13  0
   s     4 1.00
  0.130100D+02  0.196850D-01
  0.196200D+01  0.137977D+00
  0.444600D+00  0.478148D+00
  0.122000D+00  0.501240D+00
   s     1 1.00
  0.122000D+00  0.100000D+01
   p     1 1.00
  0.727000D+00  0.100000D+01
  
 14  0
   s     4 1.00
  0.130100D+02  0.196850D-01
  0.196200D+01  0.137977D+00
  0.444600D+00  0.478148D+00
  0.122000D+00  0.501240D+00
   s     1 1.00
  0.122000D+00  0.100000D+01
   p     1 1.00
  0.727000D+00  0.100000D+01
  
[MO]
 Sym= __1_A__
 Ene=  0.000000000000000E+000
 Spin= Alpha
 Occup=    2.00000000000000     
                     1  2.229531765726661E-004
                     2  0.998109893707971     
                     3 -1.015942426739271E-003
                     4  1.946152141349747E-003
                     5  6.742392264126811E-003
                     6  6.241969738758507E-003
                     7 -4.069020837371698E-003
                     8  5.418796197477108E-003
                     9 -9.703479954333138E-004
                    10  3.354084092369081E-004
                    11 -6.528298546460438E-004
                    12 -1.961319534297021E-003
                    13  2.586469961825725E-003
                    14 -3.029374509786067E-003
                    15  1.369219260130605E-005
                    16 -6.736425291558297E-005
                    17 -3.044257226280703E-005
                    18  3.744656096782370E-005
                    19  3.176356807572398E-005
                    20 -1.725077555159290E-004
                    21  5.193917397924249E-004
                    22 -2.304722858827640E-004
                    23  1.727959607803854E-004
                    24 -3.589872440252288E-004
                    25 -2.255649349455114E-005
                    26 -9.908729973048507E-005
                    27  5.352345581301755E-005
                    28  4.660079209044020E-005
                    29 -8.824445626890287E-006
                    30 -9.679429591882500E-005
                    31 -1.170045366468094E-005
                    32 -3.302612397033091E-004
                    33  4.968350364402501E-004
                    34  2.597056181479387E-004
                    35 -5.481486357446748E-005
                    36 -3.012364803133478E-003
                    37 -3.258463773308458E-004
                    38 -2.789062730260759E-004
                    39  1.981131470112052E-004
                    40 -9.673134978791610E-005
                    41  8.950690820208920E-004
                    42  4.727705079421929E-003
                    43  7.284842473980368E-004
                    44 -3.424118663280547E-003
                    45 -1.679836889399163E-004
                    46  2.316905639026566E-005
                    47  1.418647689567238E-005
                    48  1.690832490524596E-004
                    49  3.727103877529261E-005
                    50  5.443186309937923E-004
                    51  7.061810228204535E-004
                    52 -9.894797997756974E-005
                    53 -1.594529083541905E-004
                    54 -3.153235771749854E-004
                    55  4.136025868261877E-005
                    56 -4.134675254320917E-005
                    57 -3.264167087877552E-006
                    58  4.312153765092990E-005
                    59  8.953783319372148E-007
                    60 -3.500954418888055E-005
                    61  1.363627177774269E-005
                    62 -7.301587670356655E-004
                    63 -2.696346130403888E-003
                    64 -5.774584652065950E-005
                    65  2.581863405799942E-003
                    66  1.044027779518645E-004
                    67 -1.799823746394771E-004
                    68 -4.800320752417735E-004
                    69  8.691810071696904E-004
                    70 -5.201340180237932E-006
                    71  6.323675021572714E-004
                    72  1.659920434377742E-003
                    73 -4.583927183993997E-005
                    74 -1.511477492223441E-003
                    75 -5.674422786930449E-005
                    76 -3.902999441930392E-005
                    77  8.756946982110911E-006
                    78  7.934459336398799E-005
                    79  1.194083532940063E-006
                    80  4.519574092382373E-004
                    81  1.828290990813223E-004
                    82 -8.290905407140496E-005
                    83 -6.118687924341442E-005
                    84  4.808274006563328E-006
                    85 -2.434911425606758E-005
                    86 -1.404139692594675E-004
                    87  1.043797375373479E-005
                    88  8.827872166786702E-006
                    89  1.820086676047784E-005
                    90 -7.223627526313137E-005
                    91 -1.019274195988965E-005
                    92 -9.062675895785381E-006
                    93 -3.980847741365235E-004
                    94  2.853936484155548E-004
                    95 -1.009546511694224E-003
                    96  3.919110666993640E-004
                    97 -2.069387376711070E-004
                    98  2.815472810910076E-004
                    99  2.475103942480456E-004
                   100  3.450739741648538E-005
                   101  4.440267962731445E-004
                   102 -2.405577754532712E-003
                   103 -1.707913810532796E-004
                   104  1.629901340103284E-004
                   105 -5.527922480451749E-005
                   106 -4.927954443847072E-006
                   107 -1.413806444831491E-006
                   108  3.361595163100556E-005
                   109 -4.161250057981974E-006
                   110 -8.988542972964466E-005
                   111 -2.087649578706460E-004
                   112  2.353695047748248E-005
                   113 -2.357994639643312E-004
                   114  4.679164229542546E-005
                   115 -2.244503277236385E-005
                   116  4.123682146379582E-005
                   117  1.135683152513889E-005
                   118  1.809154003762034E-005
                   119 -1.155157795846248E-005
                   120 -1.041181363613982E-005
                   121 -6.584128460309411E-006
                   122 -3.146062269091360E-004
                   123 -8.552254177855572E-004
                   124  1.117737741885304E-004
                   125  9.147218022889236E-004
                   126 -3.621138079929579E-004
                   127 -5.201059516553826E-005
                   128 -3.717512019159967E-005
                   129  5.621272211091850E-004
                   130 -2.842867726130029E-005
                   131  2.806551900814127E-004
                   132  2.858649742432770E-003
                   133  4.194263848313093E-005
                   134  4.659716813616422E-004
                   135  3.270999956413407E-005
                   136 -6.424665500039041E-007
                   137 -4.793957896548950E-006
                   138 -1.792556313190022E-005
                   139  8.603273754694424E-006
                   140  2.532991838675258E-004
                   141  3.762195054501207E-004
                   142  1.250440122098413E-006
                   143 -3.879876071174522E-004
                   144 -2.858236761500071E-005
                   145 -3.714363274098137E-005
                   146 -2.409054854801307E-005
                   147 -3.717285885122458E-006
                   148 -1.434830086819628E-005
                   149 -5.105239215803927E-006
                   150 -8.464124688046662E-005
                   151 -1.458239491397695E-006
                   152 -1.387182449250057E-004
                   153 -2.654673968137406E-004
                   154 -3.738267217547651E-005
                   155  5.105653129584149E-004
                   156 -2.880106611360955E-004
                   157 -3.643570113422782E-005
                   158 -5.782489143151016E-005
                   159 -2.112006043513930E-004
                   160 -3.444520026854144E-005
                   161  2.517100574647251E-004
                   162 -1.168635560046790E-003
                   163 -1.042417983259421E-005
                   164  9.316513178680527E-004
                   165 -2.026754903796544E-005
                   166  9.281281734113123E-006
                   167  2.137033292913881E-006
                   168  1.853500273982129E-005
                   169  5.349294851006987E-006
                   170 -8.607021565185116E-005
                   171 -1.151011515339471E-005
                   172  1.253223669312967E-005
                   173  4.346431057326978E-005
                   174  7.897733220638267E-006
                   175 -1.306718556139725E-005
                   176 -4.123248022065796E-006
                   177 -7.042653467661389E-008
                   178 -7.661693667753403E-006
                   179  1.260490645109345E-007
                   180  4.956675610400991E-007
                   181 -2.864645505578960E-006
                   182 -1.565485858771390E-004
                   183 -4.861653586481171E-004
                   184  3.813263504040728E-005
                   185  2.024842591315460E-004
                   186 -1.993666853982901E-005
                   187  5.415862566290010E-006
                   188 -8.943767001798589E-005
                   189  9.155846098184336E-005
                   190 -1.576756993916103E-005
                   191  4.079944164534268E-004
                   192 -4.368844609226594E-004
                   193 -1.855935847040629E-004
                   194  2.205084014706456E-003
                   195 -5.723759512125543E-006
                   196  4.915525797416494E-006
                   197  4.413789615474490E-007
                   198  1.234121229895635E-006
                   199 -1.466579830682625E-007
                   200 -1.321297153827939E-004
                   201 -3.334047208594134E-004
                   202  1.465858983634222E-005
                   203  6.602030394318812E-005
                   204  2.847098281911884E-005
                   205  3.599159008254215E-006
                   206  3.582220080718105E-006
                   207 -7.266217948405934E-007
                   208  2.538542817109542E-005
                   209 -2.030563559063167E-006
                   210 -4.492056805729026E-006
                   211 -3.196802644154924E-006
                   212  9.142830778270422E-004
                   213 -1.299284382417644E-003
                   214  1.129942592058009E-004
                   215  3.315833720832289E-004
                   216  1.424781588229486E-005
                   217  1.764792934467744E-003
                   218 -1.669699324390167E-003
                   219  1.542295152322325E-004
                   220 -1.070044521382924E-006
                   221 -4.170751932911768E-004
                   222 -4.387374085197682E-004
                   223 -2.149723594066221E-004
                   224 -1.001146022086960E-004
                   225  2.086726505801943E-006
                   226  4.391164248927934E-005
                   227 -2.467521971613687E-004
                   228 -5.522671542361121E-004
                   229 -2.658577688345839E-005
                   230  1.351420248276325E-005
                   231 -5.187357356781470E-005
                   232  4.051850030843187E-005
                   233 -7.272538332508536E-004
                   234 -1.982689647121362E-006
                   235 -1.401951966174567E-006
                   236  5.079556443578159E-006
                   237 -1.200531701767075E-004
                   238 -2.365579203955524E-004
                   239  1.971490657539407E-005
                   240 -3.647220921588303E-006
                   241  2.257807306489713E-005
                   242 -2.240277016031287E-005
                   243  1.228299067914907E-004
                   244  3.069810808872879E-005
                   245  1.893171477858334E-006
                   246  1.749283884324317E-006
 Sym= __2_A__
 Ene=  0.000000000000000E+000
 Spin= Alpha
 Occup=    2.00000000000000     
                     1 -9.187739903969130E-007
                     2 -9.056128623584562E-005
                     3  1.430451544516834E-003
                     4 -2.265757646038089E-005
                     5  1.188790400773737E-003
                     6  1.519419220392507E-003
                     7 -7.680826050553671E-005
                     8 -1.657092074777017E-004
                     9 -1.566140890998423E-004
                    10  1.076927017126103E-004
                    11 -3.854475926487093E-005
                    12  1.731264678372135E-004
                    13  1.491460897984412E-004
                    14  2.052430739739493E-005
                    15 -5.980547628181795E-005
                    16  1.766768535382321E-005
                    17 -6.406459737111147E-006
                    18  4.667574375414714E-005
                    19 -8.655861862018953E-007
                    20  9.719606520999080E-005
                    21 -7.032195193909780E-005
                    22  2.794149859935658E-005
                    23  1.235281437922512E-004
                    24 -6.336350623047828E-005
                    25 -5.775414311424633E-005
                    26  1.264742059910697E-004
                    27  8.545746252393326E-006
                    28 -2.187083265996134E-005
                    29 -7.166296012122381E-006
                    30  1.231224107467240E-004
                    31  3.329580388913018E-005
                    32   1.00089499456488     
                    33  8.660968719112991E-003
                    34  2.839971114337190E-003
                    35 -8.385146690144238E-003
                    36 -2.005039013394224E-003
                    37  3.842841022809405E-004
                    38  8.778382892198671E-005
                    39  1.040798252991623E-003
                    40 -1.512887889663795E-004
                    41 -2.140632106759493E-004
                    42  2.898026542452886E-003
                    43 -1.170363413459684E-004
                    44 -1.219350850234415E-004
                    45  3.082824145522095E-004
                    46  1.599064092173344E-005
                    47 -5.543953346994811E-005
                    48  3.574415634289786E-004
                    49 -6.407352544535142E-006
                    50 -9.897194803389978E-004
                    51 -2.289157569745676E-004
                    52  1.550504299358102E-004
                    53 -1.524434213426805E-004
                    54  1.614201246597663E-005
                    55 -1.311888601552250E-005
                    56  2.753894733737417E-004
                    57 -1.015421715703958E-005
                    58 -2.248173819093014E-005
                    59 -2.008686403512050E-005
                    60  6.918492217552819E-005
                    61  1.118097417622298E-005
                    62  1.472632505386482E-002
                    63 -1.716978395977837E-003
                    64 -2.862999208737434E-004
                    65  2.905549193599244E-003
                    66 -1.956921057250842E-004
                    67  2.175429453244440E-005
                    68  3.390151870174643E-004
                    69  3.183505273086161E-005
                    70 -3.054841078699322E-005
                    71  3.624292101516321E-004
                    72  4.213385339552739E-004
                    73  1.645882664170867E-004
                    74 -1.781434490685552E-003
                    75 -1.284251405766532E-006
                    76  2.539201002251862E-005
                    77  5.222732902865573E-006
                    78 -4.154090277352966E-005
                    79 -2.643566127788616E-006
                    80 -4.772777216419809E-004
                    81 -3.969745945321760E-004
                    82  2.359173181433998E-005
                    83  7.939953351694354E-004
                    84  1.634505317294874E-005
                    85  4.110898458122536E-005
                    86  1.061270754007530E-004
                    87  1.631348130218244E-005
                    88 -2.098008300393780E-005
                    89 -2.127154856958800E-005
                    90 -2.456568419401560E-005
                    91  2.190784948438621E-006
                    92  1.664407110723427E-002
                    93 -1.675211840123782E-003
                    94 -3.375009651462377E-004
                    95  3.276287611254800E-003
                    96 -2.349546080455973E-004
                    97  7.287894932475188E-005
                    98 -3.284111634470518E-004
                    99 -6.015596179161240E-005
                   100  6.017977371485708E-005
                   101 -6.785928136728064E-004
                   102  1.120992292009940E-004
                   103 -1.161011399104429E-004
                   104  1.635373602277564E-003
                   105  4.706944174473724E-006
                   106 -1.113537435517987E-005
                   107  4.689952703343574E-007
                   108 -3.024354740280756E-005
                   109 -1.501908936801434E-006
                   110 -2.876022306781688E-004
                   111  4.884021297514257E-004
                   112 -3.156992633505791E-005
                   113  6.708512725857148E-004
                   114 -4.068166959068827E-005
                   115 -4.983655859238481E-005
                   116  9.302912755408998E-005
                   117 -8.717369845438857E-006
                   118  2.073736053159522E-005
                   119 -8.566577076721706E-006
                   120 -3.217126317785229E-005
                   121  6.939692506139490E-007
                   122 -1.094386839414838E-004
                   123 -7.660364779956517E-004
                   124  2.412348904964261E-004
                   125 -2.954131274631719E-004
                   126 -1.495938206998136E-004
                   127  1.215005902848786E-005
                   128 -5.404199116679550E-005
                   129  6.124776235940210E-004
                   130 -1.377551841734463E-005
                   131  7.651105006864149E-005
                   132  6.360291806689177E-004
                   133 -4.144447719344993E-005
                   134  4.181014888229214E-004
                   135  7.788826848983828E-007
                   136  3.918499514189954E-005
                   137  2.006201887177309E-006
                   138 -3.510491703189898E-005
                   139 -3.750358974354015E-006
                   140  1.971834528031314E-004
                   141 -2.667909447688609E-004
                   142 -5.110495330919866E-006
                   143 -2.434427847978480E-004
                   144  2.380956010405077E-005
                   145 -1.482280136403426E-005
                   146  1.399678408830007E-005
                   147 -2.415612506291517E-006
                   148 -7.780908615891678E-006
                   149 -3.710226796441847E-006
                   150 -2.105986639755124E-005
                   151  1.035061995857033E-006
                   152 -5.956414589656879E-005
                   153 -7.504472477266740E-004
                   154  2.454708965552333E-004
                   155 -2.674596818569669E-004
                   156 -1.247987392468211E-004
                   157 -6.232089165420302E-006
                   158  3.489307140336299E-005
                   159  5.285446295421308E-004
                   160  6.313005998943682E-006