[Molden Format]
[Atoms] AU
  N     1    7    -0.0028491700   -0.0007783900   -4.3187346300        
  C     2    6    -0.0018539800   -0.0019634900   -1.7677567300        
  C     3    6     0.0654760000   -2.3356455500   -0.4132344200        
  C     4    6    -0.0681262800    2.3304590300   -0.4110146200        
  C     5    6     0.1057681000   -2.2995661200    2.1683676300        
  C     6    6    -0.1064042200    2.2919809900    2.1705834500        
  C     7    6     0.0001907800   -0.0043985300    3.4738657600        
  H     8    1    -0.9616958900   -1.3601021500   -5.3321461200        
  H     9    1     0.9552070500    1.3594867100   -5.3316305200        
  H    10    1     0.1529208800   -4.0660124100   -1.4516363100        
  H    11    1    -0.1563806600    4.0617899100   -1.4477398100        
  H    12    1     0.2194913000   -4.0379916300    3.2009119500        
  H    13    1    -0.2193211500    4.0294463500    3.2048309300        
  H    14    1     0.0009816700   -0.0053403900    5.5012749400        
[5D]
[7F]
[GTO]
  1  0
   s    12 1.00
  0.114200D+05  0.172695D-04
  0.171200D+04  0.134411D-03
  0.389300D+03  0.694561D-03
  0.110000D+03  0.278531D-02
  0.355700D+02  0.863457D-02
  0.125400D+02  0.199805D-01
  0.464400D+01  0.262908D-01
  0.129300D+01 -0.243845D-01
  0.511800D+00 -0.924934D-01
  0.178700D+00 -0.339683D+00
  0.246240D-01  0.345111D+00
  0.112530D-01  0.752750D+00
   s    10 1.00
  0.114200D+05  0.523000D-03
  0.171200D+04  0.404500D-02
  0.389300D+03  0.207750D-01
  0.110000D+03  0.807269D-01
  0.355700D+02  0.233074D+00
  0.125400D+02  0.433501D+00
  0.464400D+01  0.347472D+00
  0.129300D+01  0.412620D-01
  0.511800D+00 -0.850799D-02
  0.178700D+00  0.238400D-02
   s    10 1.00
  0.114200D+05 -0.115000D-03
  0.171200D+04 -0.895000D-03
  0.389300D+03 -0.462400D-02
  0.110000D+03 -0.185280D-01
  0.355700D+02 -0.573390D-01
  0.125400D+02 -0.132076D+00
  0.464400D+01 -0.172510D+00
  0.129300D+01  0.151814D+00
  0.511800D+00  0.599944D+00
  0.178700D+00  0.387462D+00
   s     1 1.00
  0.129300D+01  0.100000D+01
   s     1 1.00
  0.178700D+00  0.100000D+01
   p     5 1.00
  0.266300D+02  0.146700D-01
  0.594800D+01  0.917640D-01
  0.174200D+01  0.298683D+00
  0.555000D+00  0.498487D+00
  0.172500D+00  0.337023D+00
   p     1 1.00
  0.174200D+01  0.100000D+01
   p     1 1.00
  0.555000D+00  0.100000D+01
   d     1 1.00
  0.165400D+01  0.100000D+01
   d     1 1.00
  0.469000D+00  0.100000D+01
   f     1 1.00
  0.109300D+01  0.100000D+01
  
  2  0
   s    10 1.00
  0.823600D+04  0.531000D-03
  0.123500D+04  0.410800D-02
  0.280800D+03  0.210870D-01
  0.792700D+02  0.818530D-01
  0.255900D+02  0.234817D+00
  0.899700D+01  0.434401D+00
  0.331900D+01  0.346129D+00
  0.905900D+00  0.393780D-01
  0.364300D+00 -0.898300D-02
  0.128500D+00  0.238500D-02
   s    10 1.00
  0.823600D+04 -0.113000D-03
  0.123500D+04 -0.878000D-03
  0.280800D+03 -0.454000D-02
  0.792700D+02 -0.181330D-01
  0.255900D+02 -0.557600D-01
  0.899700D+01 -0.126895D+00
  0.331900D+01 -0.170352D+00
  0.905900D+00  0.140382D+00
  0.364300D+00  0.598684D+00
  0.128500D+00  0.395389D+00
   s     1 1.00
  0.905900D+00  0.100000D+01
   s     1 1.00
  0.364300D+00  0.100000D+01
   p     5 1.00
  0.187100D+02  0.140310D-01
  0.413300D+01  0.868660D-01
  0.120000D+01  0.290216D+00
  0.382700D+00  0.501008D+00
  0.120900D+00  0.343406D+00
   p     1 1.00
  0.382700D+00  0.100000D+01
   p     1 1.00
  0.120900D+00  0.100000D+01
   d     1 1.00
  0.109700D+01  0.100000D+01
   d     1 1.00
  0.318000D+00  0.100000D+01
   f     1 1.00
  0.761000D+00  0.100000D+01
  
  3  0
   s    10 1.00
  0.823600D+04  0.531000D-03
  0.123500D+04  0.410800D-02
  0.280800D+03  0.210870D-01
  0.792700D+02  0.818530D-01
  0.255900D+02  0.234817D+00
  0.899700D+01  0.434401D+00
  0.331900D+01  0.346129D+00
  0.905900D+00  0.393780D-01
  0.364300D+00 -0.898300D-02
  0.128500D+00  0.238500D-02
   s    10 1.00
  0.823600D+04 -0.113000D-03
  0.123500D+04 -0.878000D-03
  0.280800D+03 -0.454000D-02
  0.792700D+02 -0.181330D-01
  0.255900D+02 -0.557600D-01
  0.899700D+01 -0.126895D+00
  0.331900D+01 -0.170352D+00
  0.905900D+00  0.140382D+00
  0.364300D+00  0.598684D+00
  0.128500D+00  0.395389D+00
   s     1 1.00
  0.905900D+00  0.100000D+01
   s     1 1.00
  0.364300D+00  0.100000D+01
   p     5 1.00
  0.187100D+02  0.140310D-01
  0.413300D+01  0.868660D-01
  0.120000D+01  0.290216D+00
  0.382700D+00  0.501008D+00
  0.120900D+00  0.343406D+00
   p     1 1.00
  0.382700D+00  0.100000D+01
   p     1 1.00
  0.120900D+00  0.100000D+01
   d     1 1.00
  0.109700D+01  0.100000D+01
   d     1 1.00
  0.318000D+00  0.100000D+01
   f     1 1.00
  0.761000D+00  0.100000D+01
  
  4  0
   s    10 1.00
  0.823600D+04  0.531000D-03
  0.123500D+04  0.410800D-02
  0.280800D+03  0.210870D-01
  0.792700D+02  0.818530D-01
  0.255900D+02  0.234817D+00
  0.899700D+01  0.434401D+00
  0.331900D+01  0.346129D+00
  0.905900D+00  0.393780D-01
  0.364300D+00 -0.898300D-02
  0.128500D+00  0.238500D-02
   s    10 1.00
  0.823600D+04 -0.113000D-03
  0.123500D+04 -0.878000D-03
  0.280800D+03 -0.454000D-02
  0.792700D+02 -0.181330D-01
  0.255900D+02 -0.557600D-01
  0.899700D+01 -0.126895D+00
  0.331900D+01 -0.170352D+00
  0.905900D+00  0.140382D+00
  0.364300D+00  0.598684D+00
  0.128500D+00  0.395389D+00
   s     1 1.00
  0.905900D+00  0.100000D+01
   s     1 1.00
  0.364300D+00  0.100000D+01
   p     5 1.00
  0.187100D+02  0.140310D-01
  0.413300D+01  0.868660D-01
  0.120000D+01  0.290216D+00
  0.382700D+00  0.501008D+00
  0.120900D+00  0.343406D+00
   p     1 1.00
  0.382700D+00  0.100000D+01
   p     1 1.00
  0.120900D+00  0.100000D+01
   d     1 1.00
  0.109700D+01  0.100000D+01
   d     1 1.00
  0.318000D+00  0.100000D+01
   f     1 1.00
  0.761000D+00  0.100000D+01
  
  5  0
   s    10 1.00
  0.823600D+04  0.531000D-03
  0.123500D+04  0.410800D-02
  0.280800D+03  0.210870D-01
  0.792700D+02  0.818530D-01
  0.255900D+02  0.234817D+00
  0.899700D+01  0.434401D+00
  0.331900D+01  0.346129D+00
  0.905900D+00  0.393780D-01
  0.364300D+00 -0.898300D-02
  0.128500D+00  0.238500D-02
   s    10 1.00
  0.823600D+04 -0.113000D-03
  0.123500D+04 -0.878000D-03
  0.280800D+03 -0.454000D-02
  0.792700D+02 -0.181330D-01
  0.255900D+02 -0.557600D-01
  0.899700D+01 -0.126895D+00
  0.331900D+01 -0.170352D+00
  0.905900D+00  0.140382D+00
  0.364300D+00  0.598684D+00
  0.128500D+00  0.395389D+00
   s     1 1.00
  0.905900D+00  0.100000D+01
   s     1 1.00
  0.364300D+00  0.100000D+01
   p     5 1.00
  0.187100D+02  0.140310D-01
  0.413300D+01  0.868660D-01
  0.120000D+01  0.290216D+00
  0.382700D+00  0.501008D+00
  0.120900D+00  0.343406D+00
   p     1 1.00
  0.382700D+00  0.100000D+01
   p     1 1.00
  0.120900D+00  0.100000D+01
   d     1 1.00
  0.109700D+01  0.100000D+01
   d     1 1.00
  0.318000D+00  0.100000D+01
   f     1 1.00
  0.761000D+00  0.100000D+01
  
  6  0
   s    10 1.00
  0.823600D+04  0.531000D-03
  0.123500D+04  0.410800D-02
  0.280800D+03  0.210870D-01
  0.792700D+02  0.818530D-01
  0.255900D+02  0.234817D+00
  0.899700D+01  0.434401D+00
  0.331900D+01  0.346129D+00
  0.905900D+00  0.393780D-01
  0.364300D+00 -0.898300D-02
  0.128500D+00  0.238500D-02
   s    10 1.00
  0.823600D+04 -0.113000D-03
  0.123500D+04 -0.878000D-03
  0.280800D+03 -0.454000D-02
  0.792700D+02 -0.181330D-01
  0.255900D+02 -0.557600D-01
  0.899700D+01 -0.126895D+00
  0.331900D+01 -0.170352D+00
  0.905900D+00  0.140382D+00
  0.364300D+00  0.598684D+00
  0.128500D+00  0.395389D+00
   s     1 1.00
  0.905900D+00  0.100000D+01
   s     1 1.00
  0.364300D+00  0.100000D+01
   p     5 1.00
  0.187100D+02  0.140310D-01
  0.413300D+01  0.868660D-01
  0.120000D+01  0.290216D+00
  0.382700D+00  0.501008D+00
  0.120900D+00  0.343406D+00
   p     1 1.00
  0.382700D+00  0.100000D+01
   p     1 1.00
  0.120900D+00  0.100000D+01
   d     1 1.00
  0.109700D+01  0.100000D+01
   d     1 1.00
  0.318000D+00  0.100000D+01
   f     1 1.00
  0.761000D+00  0.100000D+01
  
  7  0
   s    10 1.00
  0.823600D+04  0.531000D-03
  0.123500D+04  0.410800D-02
  0.280800D+03  0.210870D-01
  0.792700D+02  0.818530D-01
  0.255900D+02  0.234817D+00
  0.899700D+01  0.434401D+00
  0.331900D+01  0.346129D+00
  0.905900D+00  0.393780D-01
  0.364300D+00 -0.898300D-02
  0.128500D+00  0.238500D-02
   s    10 1.00
  0.823600D+04 -0.113000D-03
  0.123500D+04 -0.878000D-03
  0.280800D+03 -0.454000D-02
  0.792700D+02 -0.181330D-01
  0.255900D+02 -0.557600D-01
  0.899700D+01 -0.126895D+00
  0.331900D+01 -0.170352D+00
  0.905900D+00  0.140382D+00
  0.364300D+00  0.598684D+00
  0.128500D+00  0.395389D+00
   s     1 1.00
  0.905900D+00  0.100000D+01
   s     1 1.00
  0.364300D+00  0.100000D+01
   p     5 1.00
  0.187100D+02  0.140310D-01
  0.413300D+01  0.868660D-01
  0.120000D+01  0.290216D+00
  0.382700D+00  0.501008D+00
  0.120900D+00  0.343406D+00
   p     1 1.00
  0.382700D+00  0.100000D+01
   p     1 1.00
  0.120900D+00  0.100000D+01
   d     1 1.00
  0.109700D+01  0.100000D+01
   d     1 1.00
  0.318000D+00  0.100000D+01
   f     1 1.00
  0.761000D+00  0.100000D+01
  
  8  0
   s     4 1.00
  0.130100D+02  0.196850D-01
  0.196200D+01  0.137977D+00
  0.444600D+00  0.478148D+00
  0.122000D+00  0.501240D+00
   s     1 1.00
  0.122000D+00  0.100000D+01
   p     1 1.00
  0.727000D+00  0.100000D+01
  
  9  0
   s     4 1.00
  0.130100D+02  0.196850D-01
  0.196200D+01  0.137977D+00
  0.444600D+00  0.478148D+00
  0.122000D+00  0.501240D+00
   s     1 1.00
  0.122000D+00  0.100000D+01
   p     1 1.00
  0.727000D+00  0.100000D+01
  
 10  0
   s     4 1.00
  0.130100D+02  0.196850D-01
  0.196200D+01  0.137977D+00
  0.444600D+00  0.478148D+00
  0.122000D+00  0.501240D+00
   s     1 1.00
  0.122000D+00  0.100000D+01
   p     1 1.00
  0.727000D+00  0.100000D+01
  
 11  0
   s     4 1.00
  0.130100D+02  0.196850D-01
  0.196200D+01  0.137977D+00
  0.444600D+00  0.478148D+00
  0.122000D+00  0.501240D+00
   s     1 1.00
  0.122000D+00  0.100000D+01
   p     1 1.00
  0.727000D+00  0.100000D+01
  
 12  0
   s     4 1.00
  0.130100D+02  0.196850D-01
  0.196200D+01  0.137977D+00
  0.444600D+00  0.478148D+00
  0.122000D+00  0.501240D+00
   s     1 1.00
  0.122000D+00  0.100000D+01
   p     1 1.00
  0.727000D+00  0.100000D+01
  
 13  0
   s     4 1.00
  0.130100D+02  0.196850D-01
  0.196200D+01  0.137977D+00
  0.444600D+00  0.478148D+00
  0.122000D+00  0.501240D+00
   s     1 1.00
  0.122000D+00  0.100000D+01
   p     1 1.00
  0.727000D+00  0.100000D+01
  
 14  0
   s     4 1.00
  0.130100D+02  0.196850D-01
  0.196200D+01  0.137977D+00
  0.444600D+00  0.478148D+00
  0.122000D+00  0.501240D+00
   s     1 1.00
  0.122000D+00  0.100000D+01
   p     1 1.00
  0.727000D+00  0.100000D+01
  
[MO]
 Sym= __1_a__
 Ene=  0.000000000000000E+000
 Spin= Alpha
 Occup=    2.00000000000000     
                     1  4.603850191877320E-005
                     2  0.997996731094026     
                     3  9.246882432626620E-003
                     4  2.091836499929240E-003
                     5  1.622218022700320E-003
                     6  1.699578350356540E-006
                     7 -2.024479370850190E-006
                     8  4.337218074723430E-003
                     9 -7.265167222212590E-008
                    10  9.187099237376210E-008
                    11 -1.767807947464540E-004
                    12 -1.278971514537320E-007
                    13  1.193074552244850E-007
                    14 -3.210364140341740E-004
                    15  2.266718123798095E-004
                    16  2.112405149943120E-007
                    17 -1.896727567277320E-007
                    18 -5.115664559570080E-005
                    19  8.056955034475690E-005
                    20  1.193645220397349E-004
                    21 -2.249697669381520E-007
                    22 -4.006206548880700E-008
                    23  2.174562089290700E-004
                    24 -4.652924807251750E-004
                    25 -1.824135799244687E-004
                    26  1.024962743214932E-007
                    27 -2.128541005310943E-007
                    28  5.223223056249280E-005
                    29 -5.361586695476250E-005
                    30  6.213724264299920E-009
                    31 -5.630441347904694E-008
                    32 -2.818669191562750E-004
                    33  2.766306336927070E-003
                    34  1.408723230373880E-004
                    35 -3.987459881736420E-004
                    36 -2.655140165171240E-006
                    37  3.174249294688890E-006
                    38 -6.793859500556370E-003
                    39  6.779526632107709E-008
                    40 -1.232160342670230E-007
                    41  1.564581806114100E-004
                    42  1.657934287846580E-006
                    43 -1.939082504197120E-006
                    44  4.268230758155020E-003
                    45  3.487252068187582E-004
                    46  1.835651016802550E-007
                    47 -3.206446088756430E-007
                    48  1.179885014639996E-004
                    49 -1.337120353453890E-005
                    50  3.042414413061118E-004
                    51  3.430225951086150E-007
                    52 -3.259913211109450E-007
                    53 -2.197153930454840E-004
                    54  1.119775954913410E-004
                    55 -9.410283514105883E-005
                    56  3.677789544532669E-008
                    57 -1.419500120810753E-007
                    58  6.184861449776220E-005
                    59 -2.143797000250050E-005
                    60 -1.753154924715177E-008
                    61 -4.918367710140882E-008
                    62 -2.055504552312010E-004
                    63 -1.654326309440460E-003
                    64  2.864757048563100E-005
                    65  6.859956814748689E-004
                    66 -1.983414633473880E-005
                    67 -8.427741298933310E-004
                    68  1.026022053094590E-003
                    69  5.589175066868830E-005
                    70  2.789656626184690E-005
                    71  4.307384279106270E-004
                    72  3.856140607991920E-005
                    73 -6.602319379339160E-004
                    74 -2.052862064428820E-004
                    75  8.874411192644101E-005
                    76  2.804133983635520E-006
                    77 -1.127384046317760E-005
                    78  3.487794219747380E-005
                    79 -1.727848883667370E-007
                    80  2.452154574766699E-005
                    81 -3.317555404299580E-005
                    82  1.124903395551230E-004
                    83 -5.113794390016760E-006
                    84  3.324292875457060E-005
                    85 -8.642441834532049E-005
                    86  5.021313464910248E-006
                    87 -1.785589231477366E-005
                    88  2.170801062490320E-005
                    89 -7.258382673903260E-006
                    90  2.166759579276965E-006
                    91  1.750804902079585E-005
                    92 -2.055143821283850E-004
                    93 -1.654181587629600E-003
                    94  2.881132222470760E-005
                    95  6.854612668252360E-004
                    96  2.063261397471010E-005
                    97  8.418394961384150E-004
                    98  1.026896886269710E-003
                    99 -5.554463929863010E-005
                   100 -2.843492864630160E-005
                   101  4.301362334683750E-004
                   102 -3.869174936955730E-005
                   103  6.598537917766640E-004
                   104 -2.044798240384510E-004
                   105  8.873369237142279E-005
                   106 -2.711127485341790E-006
                   107  1.111559278078310E-005
                   108  3.488811648465720E-005
                   109 -1.616782678185520E-007
                   110  2.385896392846282E-005
                   111  3.325330679621850E-005
                   112 -1.126574909411580E-004
                   113 -5.280358579817760E-006
                   114  3.312053976939560E-005
                   115 -8.640711817671310E-005
                   116 -4.892140246518474E-006
                   117  1.763850844082124E-005
                   118  2.170159063226580E-005
                   119 -7.215587458214490E-006
                   120 -2.179612214898190E-006
                   121 -1.753877393651929E-005
                   122 -1.535289369218440E-004
                   123 -2.087854567538590E-005
                   124  1.000168242860070E-004
                   125  1.754905893739590E-004
                   126 -3.802181195581420E-005
                   127  4.191034224677730E-005
                   128 -7.765958516524680E-004
                   129 -2.986863423728900E-007
                   130  2.579547744525060E-005
                   131  2.996473313514570E-004
                   132  1.981776385143410E-005
                   133 -1.086364217234140E-004
                   134  6.680019985506740E-004
                   135 -1.230761596274157E-005
                   136  2.107273309425700E-006
                   137  3.002541896717430E-006
                   138 -1.087254107886484E-007
                   139  1.730065866020450E-006
                   140 -1.703012598342336E-004
                   141 -1.852389815899160E-005
                   142  1.389690266631520E-004
                   143  2.111344002726760E-005
                   144 -9.127138920489789E-006
                   145 -3.408241741168818E-005
                   146  2.013769769613514E-007
                   147 -1.220183165749666E-006
                   148 -8.565278672380800E-006
                   149 -1.589838149763180E-006
                   150 -8.288169855408331E-007
                   151 -2.923085898584096E-006
                   152 -1.540016425225340E-004
                   153 -2.255025499613750E-005
                   154  9.953643614416050E-005
                   155  1.785064381333550E-004
                   156  3.740666095566860E-005
                   157 -4.113117894320880E-005
                   158 -7.766338930699261E-004
                   159  5.667934332621320E-007
                   160 -2.643829999209090E-005
                   161  2.992780991440800E-004
                   162 -1.932869918841030E-005
                   163  1.085549055968690E-004
                   164  6.682912950199460E-004
                   165 -1.225604249149349E-005
                   166 -2.123822784867090E-006
                   167 -2.992234065807870E-006
                   168 -1.650431050179682E-007
                   169  1.723929297022990E-006
                   170 -1.704205059859104E-004
                   171  1.827243660485330E-005
                   172 -1.389655025585030E-004
                   173  2.095070438023140E-005
                   174 -9.253263544732750E-006
                   175 -3.399836395831643E-005
                   176 -1.250914862788479E-007
                   177  1.164271230387663E-006
                   178 -8.611174340220401E-006
                   179 -1.595006356227460E-006
                   180  8.392238663306713E-007
                   181  2.941059037492506E-006
                   182 -1.291349008937710E-004
                   183 -3.479444843622120E-004
                   184  3.002412806955440E-005
                   185  1.903228770149420E-004
                   186 -2.525462316967810E-008
                   187  1.086626750261140E-007
                   188 -4.526179436592600E-005
                   189  3.207557772958070E-008
                   190 -4.477491240980920E-007
                   191  1.617290352976110E-005
                   192  3.423915109008890E-009
                   193 -4.128281824308420E-008
                   194 -2.858995230458240E-006
                   195  1.848546284881159E-005
                   196  8.449746495912369E-009
                   197  5.362534220145290E-009
                   198  7.880946379394560E-006
                   199  9.727623832589571E-007
                   200  5.056761519120496E-005
                   201  7.612757224347890E-009
                   202  1.577310251409600E-007
                   203  3.820613823198020E-005
                   204 -5.440225531384250E-006
                   205 -1.152381106043387E-005
                   206  1.115589589836130E-008
                   207 -2.440709225267801E-008
                   208  3.176173113365120E-006
                   209  2.072752614849320E-006
                   210  1.072758646377348E-009
                   211  2.663270699375557E-008
                   212  4.015138584508730E-003
                   213 -2.388852691397530E-003
                   214  2.910473908398540E-004
                   215  3.825153967136050E-004
                   216  3.673850089384070E-004
                   217  4.015110842199780E-003
                   218 -2.388841595914030E-003
                   219 -2.907591258741250E-004
                   220 -3.828554544158360E-004
                   221  3.672565936851940E-004
                   222 -6.240426844929370E-004
                   223 -2.128309032395730E-004
                   224  2.896256068848110E-006
                   225 -2.474916240018360E-005
                   226 -4.215258094103290E-005
                   227 -6.241104138335380E-004
                   228 -2.124603417682870E-004
                   229 -2.928952740649240E-006
                   230  2.477038723112070E-005
                   231 -4.215359553527500E-005
                   232 -2.324547891306800E-004
                   233 -3.538181310670620E-004
                   234 -2.679203424349980E-006
                   235 -8.322996666322639E-006
                   236  3.192825625025570E-006
                   237 -2.324947399589380E-004
                   238 -3.539762076192680E-004
                   239  2.678454566056730E-006
                   240  8.365801347245480E-006
                   241  3.245964958982530E-006
                   242  7.201709675472820E-005
                   243 -8.664933032800620E-005
                   244  6.187110919573320E-009
                   245 -2.856430656615600E-008
                   246  1.515061096623060E-005
 Sym= __2_a__
 Ene=  0.000000000000000E+000
 Spin= Alpha
 Occup=    2.00000000000000     
                     1 -3.324601351455740E-005
                     2 -1.605229647741860E-004
                     3  2.134521405672270E-003
                     4  8.127104150296001E-005
                     5  1.244964252094850E-003
                     6  1.030773901543350E-006
                     7 -1.230888405892480E-006
                     8  2.654701557295930E-003
                     9 -2.661158806088540E-008
                    10  3.159018033713380E-008
                    11 -7.366493668697889E-005
                    12 -1.215919215066680E-007
                    13  1.547469574349480E-007
                    14 -3.210325575537200E-004
                    15  4.630859093391830E-005
                    16  1.707835918623110E-009
                    17 -4.400971955896480E-008
                    18  4.004373983906360E-005
                    19 -2.931293747088520E-005
                    20 -2.082004656413409E-004
                    21 -1.109630714580280E-009
                    22  1.926926280430430E-007
                    23 -1.778207734580698E-004
                    24  1.483189511272630E-004
                    25  1.915924020252739E-004
                    26 -1.898647541406812E-007
                    27  2.574424584480706E-007
                    28 -2.652017368227060E-005
                    29 -3.265317811255820E-005
                    30  3.125697211467964E-008
                    31  2.199301480661259E-010
                    32   1.00105733463539     
                    33  9.091913579532301E-003
                    34  2.604004071270730E-003
                    35 -7.792344926095170E-003
                    36 -1.473093841989370E-006
                    37  1.748681151797380E-006
                    38 -3.776095534864340E-003
                    39  4.431082544154700E-007
                    40 -5.255929810127930E-007
                    41  1.137445873232000E-003
                    42  1.626860301288770E-006
                    43 -2.000257779974240E-006
                    44  4.156815414894350E-003
                    45  4.059839052252021E-004
                    46  4.417092537175280E-007
                    47 -1.455365759434010E-007
                    48 -4.095898528496420E-004
                    49  1.627916433345300E-005
                    50  4.487244178283084E-004
                    51 -3.313919299866730E-008
                    52 -7.383487312311230E-007
                    53  8.491143010196660E-004
                    54 -1.305004853206970E-005
                    55  3.509719750341195E-004
                    56 -2.082011175386633E-007
                    57  5.315145182953966E-007
                    58 -1.915217077518430E-004
                    59  1.307423612087190E-005
                    60  8.422540373694406E-008
                    61  1.169566434675793E-007
                    62  8.552224476484399E-003
                    63 -1.957675003127520E-003
                    64 -2.709991668631070E-004
                    65  2.956926302975770E-003
                    66  5.619488847986400E-006
                    67  1.455590329348010E-004
                    68 -5.940442091041350E-005
                    69 -3.958826620238920E-005
                    70  5.541418569641971E-004
                    71  7.799243401277470E-005
                    72  8.347069823584490E-005
                    73 -1.975458756283900E-003
                    74  1.035934061638470E-004
                    75 -1.840810460520753E-005
                    76  1.822880687127600E-006
                    77  1.673032619258390E-005
                    78  2.866047173356500E-005
                    79  2.591056574063920E-006
                    80  7.568799661288595E-004
                    81  3.261304151794870E-005
                    82 -4.179800957397120E-004
                    83 -1.993633435288248E-005
                    84 -1.973232389458630E-005
                    85  6.469228029530617E-005
                    86 -1.097097962595053E-006
                    87  3.735257970055368E-005
                    88 -1.207521945475714E-004
                    89  1.122933139843710E-007
                    90  3.567462786017400E-006
                    91  4.951547599988282E-005
                    92  8.552198297524020E-003
                    93 -1.957757962200000E-003
                    94 -2.710439777658750E-004
                    95  2.957128879462750E-003
                    96 -5.665154782654550E-006
                    97 -1.455049884988060E-004
                    98 -5.956017638390710E-005
                    99  3.964680028885640E-005
                   100 -5.542104203166830E-004
                   101  7.758604974720840E-005
                   102 -8.339756774315140E-005
                   103  1.975496606277390E-003
                   104  1.053369004275390E-004
                   105 -1.841842992015547E-005
                   106 -1.867976254690580E-006
                   107 -1.673556705831230E-005
                   108  2.864196088183340E-005
                   109  2.579822687844150E-006
                   110  7.576650464892415E-004
                   111 -3.159545691201770E-005
                   112  4.168434762487080E-004
                   113 -1.955305407706102E-005
                   114 -1.937583306586270E-005
                   115  6.476448393311933E-005
                   116  1.121951031205756E-006
                   117 -3.702561946284699E-005
                   118 -1.208628081947532E-004
                   119  1.081923962128130E-007
                   120 -3.451798760805469E-006
                   121 -4.937663515373942E-005
                   122 -2.123954626044080E-004
                   123 -7.485537278659619E-004
                   124  2.259576300132020E-004
                   125 -1.402187561391130E-004
                   126 -6.816323451551230E-006
                   127 -2.657204155080970E-005
                   128 -2.302878250177190E-004
                   129  1.494938343488080E-005
                   130  7.247731276575560E-006
                   131  5.490524985734150E-004
                   132 -1.253190330873610E-005
                   133  3.070312470038570E-004
                   134  7.129901215890290E-004
                   135 -1.751563302211477E-005
                   136 -3.338415102845830E-006
                   137  4.996584133460810E-005
                   138  1.459257899891828E-005
                   139  2.648647153318480E-006
                   140 -2.989250083637261E-004
                   141  1.451184670647550E-006
                   142 -2.296466803962820E-004
                   143 -1.945088628470204E-005
                   144 -1.196334954899700E-005
                   145 -2.671105489679187E-006
                   146  4.167245943658148E-006
                   147 -3.476233101141787E-005
                   148 -3.609283694719340E-005
                   149 -3.798160905074690E-006
                   150  8.734730700809538E-007
                   151 -6.552760313988961E-006
                   152 -2.121055220457100E-004
                   153 -7.475909621244130E-004
                   154  2.260303455950000E-004
                   155 -1.412684233330090E-004
                   156  6.637801440856510E-006
                   157  2.677526079734250E-005
                   158 -2.302723106888400E-004
                   159 -1.452612129195080E-005
                   160 -7.704287704198350E-006