[Molden Format]
[Atoms] AU
  N     1    7    -4.4891757400    0.0982420000   -0.3006910200        
  C     2    6    -1.7536193000   -0.0033299200   -0.1352871200        
  C     3    6    -0.3639952300    0.2134853400   -2.3567540000        
  C     4    6    -0.4688414300   -0.1898998400    2.1542229600        
  C     5    6     2.2496183100    0.1959744100   -2.2874331400        
  C     6    6     2.1477627400   -0.1632116500    2.2126303100        
  C     7    6     3.5138700900    0.0194703600   -0.0055103300        
  H     8    1    -5.1451082500   -1.7437486300   -0.4208542400        
  H     9    1    -5.1139405500    0.6643817200    1.4500863800        
  H    10    1    -1.3457225800    0.4109688500   -4.1173666400        
  H    11    1    -1.5147427000   -0.3727502600    3.8827049800        
  H    12    1     3.3007865400    0.3545706500   -4.0153811600        
  H    13    1     3.1132813500   -0.3025595400    3.9920558600        
  H    14    1     5.5420717300    0.0283588000    0.0417398800        
[5D]
[7F]
[GTO]
  1  0
   s    12 1.00
  0.114200D+05  0.172695D-04
  0.171200D+04  0.134411D-03
  0.389300D+03  0.694561D-03
  0.110000D+03  0.278531D-02
  0.355700D+02  0.863457D-02
  0.125400D+02  0.199805D-01
  0.464400D+01  0.262908D-01
  0.129300D+01 -0.243845D-01
  0.511800D+00 -0.924934D-01
  0.178700D+00 -0.339683D+00
  0.246240D-01  0.345111D+00
  0.112530D-01  0.752750D+00
   s    10 1.00
  0.114200D+05  0.523000D-03
  0.171200D+04  0.404500D-02
  0.389300D+03  0.207750D-01
  0.110000D+03  0.807269D-01
  0.355700D+02  0.233074D+00
  0.125400D+02  0.433501D+00
  0.464400D+01  0.347472D+00
  0.129300D+01  0.412620D-01
  0.511800D+00 -0.850799D-02
  0.178700D+00  0.238400D-02
   s    10 1.00
  0.114200D+05 -0.115000D-03
  0.171200D+04 -0.895000D-03
  0.389300D+03 -0.462400D-02
  0.110000D+03 -0.185280D-01
  0.355700D+02 -0.573390D-01
  0.125400D+02 -0.132076D+00
  0.464400D+01 -0.172510D+00
  0.129300D+01  0.151814D+00
  0.511800D+00  0.599944D+00
  0.178700D+00  0.387462D+00
   s     1 1.00
  0.129300D+01  0.100000D+01
   s     1 1.00
  0.178700D+00  0.100000D+01
   p     5 1.00
  0.266300D+02  0.146700D-01
  0.594800D+01  0.917640D-01
  0.174200D+01  0.298683D+00
  0.555000D+00  0.498487D+00
  0.172500D+00  0.337023D+00
   p     1 1.00
  0.174200D+01  0.100000D+01
   p     1 1.00
  0.555000D+00  0.100000D+01
   d     1 1.00
  0.165400D+01  0.100000D+01
   d     1 1.00
  0.469000D+00  0.100000D+01
   f     1 1.00
  0.109300D+01  0.100000D+01
  
  2  0
   s    10 1.00
  0.823600D+04  0.531000D-03
  0.123500D+04  0.410800D-02
  0.280800D+03  0.210870D-01
  0.792700D+02  0.818530D-01
  0.255900D+02  0.234817D+00
  0.899700D+01  0.434401D+00
  0.331900D+01  0.346129D+00
  0.905900D+00  0.393780D-01
  0.364300D+00 -0.898300D-02
  0.128500D+00  0.238500D-02
   s    10 1.00
  0.823600D+04 -0.113000D-03
  0.123500D+04 -0.878000D-03
  0.280800D+03 -0.454000D-02
  0.792700D+02 -0.181330D-01
  0.255900D+02 -0.557600D-01
  0.899700D+01 -0.126895D+00
  0.331900D+01 -0.170352D+00
  0.905900D+00  0.140382D+00
  0.364300D+00  0.598684D+00
  0.128500D+00  0.395389D+00
   s     1 1.00
  0.905900D+00  0.100000D+01
   s     1 1.00
  0.364300D+00  0.100000D+01
   p     5 1.00
  0.187100D+02  0.140310D-01
  0.413300D+01  0.868660D-01
  0.120000D+01  0.290216D+00
  0.382700D+00  0.501008D+00
  0.120900D+00  0.343406D+00
   p     1 1.00
  0.382700D+00  0.100000D+01
   p     1 1.00
  0.120900D+00  0.100000D+01
   d     1 1.00
  0.109700D+01  0.100000D+01
   d     1 1.00
  0.318000D+00  0.100000D+01
   f     1 1.00
  0.761000D+00  0.100000D+01
  
  3  0
   s    10 1.00
  0.823600D+04  0.531000D-03
  0.123500D+04  0.410800D-02
  0.280800D+03  0.210870D-01
  0.792700D+02  0.818530D-01
  0.255900D+02  0.234817D+00
  0.899700D+01  0.434401D+00
  0.331900D+01  0.346129D+00
  0.905900D+00  0.393780D-01
  0.364300D+00 -0.898300D-02
  0.128500D+00  0.238500D-02
   s    10 1.00
  0.823600D+04 -0.113000D-03
  0.123500D+04 -0.878000D-03
  0.280800D+03 -0.454000D-02
  0.792700D+02 -0.181330D-01
  0.255900D+02 -0.557600D-01
  0.899700D+01 -0.126895D+00
  0.331900D+01 -0.170352D+00
  0.905900D+00  0.140382D+00
  0.364300D+00  0.598684D+00
  0.128500D+00  0.395389D+00
   s     1 1.00
  0.905900D+00  0.100000D+01
   s     1 1.00
  0.364300D+00  0.100000D+01
   p     5 1.00
  0.187100D+02  0.140310D-01
  0.413300D+01  0.868660D-01
  0.120000D+01  0.290216D+00
  0.382700D+00  0.501008D+00
  0.120900D+00  0.343406D+00
   p     1 1.00
  0.382700D+00  0.100000D+01
   p     1 1.00
  0.120900D+00  0.100000D+01
   d     1 1.00
  0.109700D+01  0.100000D+01
   d     1 1.00
  0.318000D+00  0.100000D+01
   f     1 1.00
  0.761000D+00  0.100000D+01
  
  4  0
   s    10 1.00
  0.823600D+04  0.531000D-03
  0.123500D+04  0.410800D-02
  0.280800D+03  0.210870D-01
  0.792700D+02  0.818530D-01
  0.255900D+02  0.234817D+00
  0.899700D+01  0.434401D+00
  0.331900D+01  0.346129D+00
  0.905900D+00  0.393780D-01
  0.364300D+00 -0.898300D-02
  0.128500D+00  0.238500D-02
   s    10 1.00
  0.823600D+04 -0.113000D-03
  0.123500D+04 -0.878000D-03
  0.280800D+03 -0.454000D-02
  0.792700D+02 -0.181330D-01
  0.255900D+02 -0.557600D-01
  0.899700D+01 -0.126895D+00
  0.331900D+01 -0.170352D+00
  0.905900D+00  0.140382D+00
  0.364300D+00  0.598684D+00
  0.128500D+00  0.395389D+00
   s     1 1.00
  0.905900D+00  0.100000D+01
   s     1 1.00
  0.364300D+00  0.100000D+01
   p     5 1.00
  0.187100D+02  0.140310D-01
  0.413300D+01  0.868660D-01
  0.120000D+01  0.290216D+00
  0.382700D+00  0.501008D+00
  0.120900D+00  0.343406D+00
   p     1 1.00
  0.382700D+00  0.100000D+01
   p     1 1.00
  0.120900D+00  0.100000D+01
   d     1 1.00
  0.109700D+01  0.100000D+01
   d     1 1.00
  0.318000D+00  0.100000D+01
   f     1 1.00
  0.761000D+00  0.100000D+01
  
  5  0
   s    10 1.00
  0.823600D+04  0.531000D-03
  0.123500D+04  0.410800D-02
  0.280800D+03  0.210870D-01
  0.792700D+02  0.818530D-01
  0.255900D+02  0.234817D+00
  0.899700D+01  0.434401D+00
  0.331900D+01  0.346129D+00
  0.905900D+00  0.393780D-01
  0.364300D+00 -0.898300D-02
  0.128500D+00  0.238500D-02
   s    10 1.00
  0.823600D+04 -0.113000D-03
  0.123500D+04 -0.878000D-03
  0.280800D+03 -0.454000D-02
  0.792700D+02 -0.181330D-01
  0.255900D+02 -0.557600D-01
  0.899700D+01 -0.126895D+00
  0.331900D+01 -0.170352D+00
  0.905900D+00  0.140382D+00
  0.364300D+00  0.598684D+00
  0.128500D+00  0.395389D+00
   s     1 1.00
  0.905900D+00  0.100000D+01
   s     1 1.00
  0.364300D+00  0.100000D+01
   p     5 1.00
  0.187100D+02  0.140310D-01
  0.413300D+01  0.868660D-01
  0.120000D+01  0.290216D+00
  0.382700D+00  0.501008D+00
  0.120900D+00  0.343406D+00
   p     1 1.00
  0.382700D+00  0.100000D+01
   p     1 1.00
  0.120900D+00  0.100000D+01
   d     1 1.00
  0.109700D+01  0.100000D+01
   d     1 1.00
  0.318000D+00  0.100000D+01
   f     1 1.00
  0.761000D+00  0.100000D+01
  
  6  0
   s    10 1.00
  0.823600D+04  0.531000D-03
  0.123500D+04  0.410800D-02
  0.280800D+03  0.210870D-01
  0.792700D+02  0.818530D-01
  0.255900D+02  0.234817D+00
  0.899700D+01  0.434401D+00
  0.331900D+01  0.346129D+00
  0.905900D+00  0.393780D-01
  0.364300D+00 -0.898300D-02
  0.128500D+00  0.238500D-02
   s    10 1.00
  0.823600D+04 -0.113000D-03
  0.123500D+04 -0.878000D-03
  0.280800D+03 -0.454000D-02
  0.792700D+02 -0.181330D-01
  0.255900D+02 -0.557600D-01
  0.899700D+01 -0.126895D+00
  0.331900D+01 -0.170352D+00
  0.905900D+00  0.140382D+00
  0.364300D+00  0.598684D+00
  0.128500D+00  0.395389D+00
   s     1 1.00
  0.905900D+00  0.100000D+01
   s     1 1.00
  0.364300D+00  0.100000D+01
   p     5 1.00
  0.187100D+02  0.140310D-01
  0.413300D+01  0.868660D-01
  0.120000D+01  0.290216D+00
  0.382700D+00  0.501008D+00
  0.120900D+00  0.343406D+00
   p     1 1.00
  0.382700D+00  0.100000D+01
   p     1 1.00
  0.120900D+00  0.100000D+01
   d     1 1.00
  0.109700D+01  0.100000D+01
   d     1 1.00
  0.318000D+00  0.100000D+01
   f     1 1.00
  0.761000D+00  0.100000D+01
  
  7  0
   s    10 1.00
  0.823600D+04  0.531000D-03
  0.123500D+04  0.410800D-02
  0.280800D+03  0.210870D-01
  0.792700D+02  0.818530D-01
  0.255900D+02  0.234817D+00
  0.899700D+01  0.434401D+00
  0.331900D+01  0.346129D+00
  0.905900D+00  0.393780D-01
  0.364300D+00 -0.898300D-02
  0.128500D+00  0.238500D-02
   s    10 1.00
  0.823600D+04 -0.113000D-03
  0.123500D+04 -0.878000D-03
  0.280800D+03 -0.454000D-02
  0.792700D+02 -0.181330D-01
  0.255900D+02 -0.557600D-01
  0.899700D+01 -0.126895D+00
  0.331900D+01 -0.170352D+00
  0.905900D+00  0.140382D+00
  0.364300D+00  0.598684D+00
  0.128500D+00  0.395389D+00
   s     1 1.00
  0.905900D+00  0.100000D+01
   s     1 1.00
  0.364300D+00  0.100000D+01
   p     5 1.00
  0.187100D+02  0.140310D-01
  0.413300D+01  0.868660D-01
  0.120000D+01  0.290216D+00
  0.382700D+00  0.501008D+00
  0.120900D+00  0.343406D+00
   p     1 1.00
  0.382700D+00  0.100000D+01
   p     1 1.00
  0.120900D+00  0.100000D+01
   d     1 1.00
  0.109700D+01  0.100000D+01
   d     1 1.00
  0.318000D+00  0.100000D+01
   f     1 1.00
  0.761000D+00  0.100000D+01
  
  8  0
   s     4 1.00
  0.130100D+02  0.196850D-01
  0.196200D+01  0.137977D+00
  0.444600D+00  0.478148D+00
  0.122000D+00  0.501240D+00
   s     1 1.00
  0.122000D+00  0.100000D+01
   p     1 1.00
  0.727000D+00  0.100000D+01
  
  9  0
   s     4 1.00
  0.130100D+02  0.196850D-01
  0.196200D+01  0.137977D+00
  0.444600D+00  0.478148D+00
  0.122000D+00  0.501240D+00
   s     1 1.00
  0.122000D+00  0.100000D+01
   p     1 1.00
  0.727000D+00  0.100000D+01
  
 10  0
   s     4 1.00
  0.130100D+02  0.196850D-01
  0.196200D+01  0.137977D+00
  0.444600D+00  0.478148D+00
  0.122000D+00  0.501240D+00
   s     1 1.00
  0.122000D+00  0.100000D+01
   p     1 1.00
  0.727000D+00  0.100000D+01
  
 11  0
   s     4 1.00
  0.130100D+02  0.196850D-01
  0.196200D+01  0.137977D+00
  0.444600D+00  0.478148D+00
  0.122000D+00  0.501240D+00
   s     1 1.00
  0.122000D+00  0.100000D+01
   p     1 1.00
  0.727000D+00  0.100000D+01
  
 12  0
   s     4 1.00
  0.130100D+02  0.196850D-01
  0.196200D+01  0.137977D+00
  0.444600D+00  0.478148D+00
  0.122000D+00  0.501240D+00
   s     1 1.00
  0.122000D+00  0.100000D+01
   p     1 1.00
  0.727000D+00  0.100000D+01
  
 13  0
   s     4 1.00
  0.130100D+02  0.196850D-01
  0.196200D+01  0.137977D+00
  0.444600D+00  0.478148D+00
  0.122000D+00  0.501240D+00
   s     1 1.00
  0.122000D+00  0.100000D+01
   p     1 1.00
  0.727000D+00  0.100000D+01
  
 14  0
   s     4 1.00
  0.130100D+02  0.196850D-01
  0.196200D+01  0.137977D+00
  0.444600D+00  0.478148D+00
  0.122000D+00  0.501240D+00
   s     1 1.00
  0.122000D+00  0.100000D+01
   p     1 1.00
  0.727000D+00  0.100000D+01
  
[MO]
 Sym= __1_A__
 Ene=  0.000000000000000E+000
 Spin= Alpha
 Occup=    2.00000000000000     
                     1  2.015121654896805E-004
                     2  0.998122906520804     
                     3 -3.124729557354291E-003
                     4  1.959388861651700E-003
                     5  7.024711702348215E-003
                     6  6.660361857809438E-003
                     7 -3.793665462913476E-003
                     8  6.748470811090457E-003
                     9 -1.041500360364866E-003
                    10  3.362849266179084E-004
                    11 -7.979410873573759E-004
                    12 -2.170463375206335E-003
                    13  2.318288891940374E-003
                    14 -3.553447201093850E-003
                    15  3.070248422781669E-005
                    16 -6.980332813355964E-005
                    17 -3.565400313217995E-005
                    18  3.398815883871068E-005
                    19  1.896525627551422E-005
                    20 -9.352132336876299E-005
                    21  5.817650187756975E-004
                    22 -2.384273092163630E-004
                    23  2.155427172868844E-004
                    24 -3.192773288339914E-004
                    25 -9.074562633457960E-007
                    26 -9.379204590542291E-005
                    27  6.002045888479432E-005
                    28  3.357618925170682E-005
                    29 -2.291705824462585E-006
                    30 -8.850434070042199E-005
                    31 -8.024579355673094E-006
                    32 -3.192982787837292E-004
                    33  3.648192285365445E-004
                    34  2.681046838915035E-004
                    35 -3.654967893219778E-005
                    36 -2.565300107813788E-003
                    37 -5.030639282170262E-004
                    38 -3.459001702165697E-004
                    39  1.831084947278475E-004
                    40 -1.132088587676055E-004
                    41  1.006814087598914E-003
                    42  4.679659487168296E-003
                    43  6.717657905951941E-004
                    44 -3.558668281290034E-003
                    45 -1.489838476030985E-004
                    46  1.307905412344900E-005
                    47  1.469473904939736E-005
                    48  1.526742122528713E-004
                    49  3.391861216193995E-005
                    50  5.590365617327012E-004
                    51  7.893194982667841E-004
                    52 -9.972567550768131E-005
                    53 -1.867021994470637E-004
                    54 -2.854677991596292E-004
                    55  4.747096290418592E-005
                    56 -3.615244574573009E-005
                    57 -5.749920353902584E-006
                    58  5.265943286960832E-005
                    59 -8.748208394275703E-007
                    60 -3.672835469785897E-005
                    61  5.844893056893559E-006
                    62 -7.767788711176933E-004
                    63 -2.698851455904365E-003
                    64 -7.884249557798577E-005
                    65  2.800732832033928E-003
                    66 -7.013853621199288E-005
                    67 -2.462257016108349E-004
                    68 -3.893104114436436E-004
                    69  8.685502392199813E-004
                    70 -2.534610406474585E-005
                    71  7.015495640840120E-004
                    72  1.745181725909185E-003
                    73  4.443282871610226E-005
                    74 -1.531916129832236E-003
                    75 -4.877501424653403E-005
                    76 -4.486844257229890E-005
                    77  1.823181479689661E-006
                    78  7.874921548672016E-005
                    79  5.567198326127091E-006
                    80  4.888942106315535E-004
                    81  1.629640722030428E-004
                    82 -9.205480125202892E-005
                    83 -6.665110968836977E-005
                    84  2.517039963283465E-006
                    85 -2.527280618850530E-005
                    86 -1.494607556152677E-004
                    87  4.826367885853989E-006
                    88  1.120411063481262E-005
                    89  2.024166845207663E-005
                    90 -7.373676144349161E-005
                    91 -8.656473396967036E-006
                    92  2.670556393280076E-005
                    93 -2.336312495620390E-004
                    94  3.144967171738617E-004
                    95 -1.241374325893248E-003
                    96  3.338339410973759E-004
                    97 -2.606946023055159E-004
                    98  2.315947451547652E-004
                    99  2.173370604830103E-004
                   100  1.353613495676614E-005
                   101  5.157558769367001E-004
                   102 -2.453899807382798E-003
                   103 -1.217174750287052E-004
                   104  1.858514252856519E-004
                   105 -5.117339473296482E-005
                   106 -7.809458690160772E-006
                   107  3.648583470580488E-006
                   108  3.034819859252748E-005
                   109 -4.357677549441937E-007
                   110 -1.264587374812510E-004
                   111 -2.063234831599978E-004
                   112  3.127311605435925E-005
                   113 -2.415789547167684E-004
                   114  3.646141857846768E-005
                   115 -2.718148932758599E-005
                   116  5.173782503283604E-005
                   117  7.589889771893932E-006
                   118  1.661939905589333E-005
                   119 -1.193501143012194E-005
                   120 -5.975439857197072E-006
                   121 -6.675514342609081E-006
                   122 -3.250422659178970E-004
                   123 -9.480315537929199E-004
                   124  1.170352238718301E-004
                   125  9.492746599512779E-004
                   126 -2.665534668585468E-004
                   127 -5.092919746057645E-005
                   128 -4.799430227203144E-005
                   129  5.698163757238460E-004
                   130 -2.690422960409584E-005
                   131  2.985303986037807E-004
                   132  2.899381448926586E-003
                   133  2.882758903285708E-005
                   134  4.806080707201776E-004
                   135  3.654310347307683E-005
                   136 -2.527558426668374E-006
                   137 -4.571016612757387E-006
                   138 -2.058285995517374E-005
                   139  8.538212791672451E-006
                   140  2.594272145173544E-004
                   141  3.814897467682687E-004
                   142  1.885021680182485E-006
                   143 -4.015924210216930E-004
                   144 -2.927355077108061E-005
                   145 -3.809239760055650E-005
                   146 -2.646287536731225E-005
                   147 -4.706028782525205E-006
                   148 -1.432995484524363E-005
                   149 -5.089181036072191E-006
                   150 -8.866021445134916E-005
                   151 -4.435401657401823E-007
                   152 -1.426803804982120E-004
                   153 -3.044454851424181E-004
                   154 -5.139303829309188E-005
                   155  5.532760222338267E-004
                   156 -2.332835573360898E-004
                   157 -2.948665991988527E-005
                   158 -5.597933694654130E-005
                   159 -2.502295448568581E-004
                   160 -3.234744639102159E-005
                   161  2.580687354906657E-004
                   162 -1.223469710547738E-003
                   163 -3.905205511184139E-005
                   164  9.251698599804563E-004
                   165 -2.269576021920373E-005
                   166  9.724628074921018E-006
                   167  1.622356688186257E-006
                   168  2.131110048760788E-005
                   169  5.759546344797510E-006
                   170 -8.846573206493251E-005
                   171  5.187757824185133E-006
                   172  1.372103758455628E-005
                   173  5.934911760019140E-005
                   174  7.539789413320528E-006
                   175 -1.403654213463762E-005
                   176 -2.269266410518057E-006
                   177 -8.996163647127656E-007
                   178 -9.037184274329370E-006
                   179 -9.950649627602038E-008
                   180  5.439594015153246E-006
                   181 -1.918553062806891E-006
                   182 -1.608189315600308E-004
                   183 -4.986448568507439E-004
                   184  3.985387212800508E-005
                   185  2.108941913103610E-004
                   186 -2.246557039340651E-005
                   187  3.961861930224521E-005
                   188 -9.020890199466615E-005
                   189  9.341940847959624E-005
                   190 -2.301769267492970E-005
                   191  4.271591724967844E-004
                   192 -4.573300164490639E-004
                   193 -1.917699918439542E-004
                   194  2.260104007093766E-003
                   195 -4.140546430401201E-006
                   196  5.559314941929790E-006
                   197  5.616514661777424E-007
                   198  2.723505018669670E-007
                   199  1.007087615437881E-007
                   200 -1.333169990406565E-004
                   201 -3.463477776588894E-004
                   202  1.608258316836744E-005
                   203  6.488702360558484E-005
                   204  3.039283065597909E-005
                   205  3.362071775761310E-006
                   206  4.377336851615554E-006
                   207 -1.316917269407514E-006
                   208  2.564068974031858E-005
                   209 -2.111954218844337E-006
                   210 -4.320834226118817E-006
                   211 -3.040793551440019E-006
                   212  3.482132201449678E-004
                   213 -1.002781114689767E-003
                   214  1.076442004174257E-004
                   215  2.852415483758585E-004
                   216 -3.030021062812439E-005
                   217  1.366971868502765E-003
                   218 -1.419466996581556E-003
                   219  1.456746043542467E-004
                   220 -3.581863180689507E-005
                   221 -3.690747047113825E-004
                   222 -3.874936292598082E-004
                   223 -2.345390607034115E-004
                   224 -1.041041518595047E-004
                   225 -1.907198908386686E-006
                   226  4.896703308291752E-005
                   227 -1.935903590226215E-004
                   228 -5.932355659287293E-004
                   229 -2.373652309240123E-005
                   230  1.114582324141430E-005
                   231 -5.483234915797795E-005
                   232  8.983825518200295E-005
                   233 -7.385542879068088E-004
                   234 -2.329220429305340E-006
                   235 -1.505857995463165E-006
                   236  8.345024114623574E-006
                   237 -1.169989898731058E-004
                   238 -2.215929838926217E-004
                   239  2.004029229232284E-005
                   240 -3.246349350780006E-006
                   241  2.409171769413375E-005
                   242 -3.543417462214151E-005
                   243  1.277681778659619E-004
                   244  3.112025101178129E-005
                   245  2.453962544331486E-006
                   246  1.827161663541468E-006
 Sym= __2_A__
 Ene=  0.000000000000000E+000
 Spin= Alpha
 Occup=    2.00000000000000     
                     1  1.583609163413559E-006
                     2 -9.422737666934666E-005
                     3  1.168007770995905E-003
                     4 -2.163833856849555E-005
                     5  1.188911947414856E-003
                     6  1.409969564888709E-003
                     7 -1.492705133003868E-004
                     8 -8.098494678088773E-005
                     9 -1.564931005506757E-004
                    10  1.048200920656536E-004
                    11 -5.148963650701145E-005
                    12  1.914119624413170E-004
                    13  1.511261427523945E-004
                    14 -1.322414893799682E-005
                    15 -5.633057857957043E-005
                    16  1.929901262045954E-005
                    17 -4.970274032511603E-006
                    18  4.732908928007472E-005
                    19 -4.348452955054038E-007
                    20  7.662199339135665E-005
                    21 -6.609531572281888E-005
                    22  2.240462121403192E-005
                    23  1.214233815356752E-004
                    24 -5.739214000856839E-005
                    25 -5.219854098968425E-005
                    26  1.253212305272677E-004
                    27  1.712998688712706E-005
                    28 -3.209600586073522E-005
                    29 -9.957387266418581E-006
                    30  1.209565058000299E-004
                    31  2.934690574718187E-005
                    32   1.00087141346332     
                    33  8.603194503890604E-003
                    34  2.852297287784843E-003
                    35 -8.412812780503105E-003
                    36 -1.804369775441321E-003
                    37  2.751793832117374E-004
                    38  1.077498780812108E-004
                    39  9.983057868484500E-004
                    40 -1.150254057370325E-004
                    41 -2.607674819013258E-004
                    42  2.759225600677771E-003
                    43 -1.071483404945589E-004
                    44 -2.329377575174569E-005
                    45  3.113838307526117E-004
                    46  1.193732297185389E-005
                    47 -6.337847370691000E-005
                    48  3.439427974299020E-004
                    49 -4.171784778178994E-007
                    50 -9.789208681460603E-004
                    51 -2.532859569169344E-004
                    52  1.653303840557755E-004
                    53 -1.576742926468483E-004
                    54  1.477145619228946E-005
                    55 -1.596882457101895E-005
                    56  2.677842758708003E-004
                    57 -8.632789389161405E-006
                    58 -2.577235403222682E-005
                    59 -2.394419892413570E-005
                    60  6.764641327385289E-005
                    61  8.847417325696820E-006
                    62  1.537027529795287E-002
                    63 -1.649729911945787E-003
                    64 -2.870876160399791E-004
                    65  2.866567684638743E-003
                    66 -2.247492060056598E-004
                    67 -4.787998696041979E-006
                    68  3.638229539642875E-004
                    69  3.294277624036906E-005
                    70 -3.394960153247011E-005
                    71  3.451355307791632E-004
                    72  3.798517997298524E-004
                    73  1.908576293905407E-004
                    74 -1.753682374347969E-003
                    75  2.124195716316362E-006
                    76  2.512898074372941E-005
                    77  3.491329549918358E-006
                    78 -4.312975124020390E-005
                    79 -2.394491690336780E-006
                    80 -4.883392580985025E-004
                    81 -3.860823885566002E-004
                    82  2.363621930993905E-005
                    83  7.976090961942098E-004
                    84  2.749407509988280E-005
                    85  3.850973848905113E-005
                    86  1.052641577601462E-004
                    87  1.714058281600948E-005
                    88 -2.348318852939008E-005
                    89 -2.192931178695535E-005
                    90 -2.507087040226610E-005
                    91  2.731826260534066E-006
                    92  1.751164336124798E-002
                    93 -1.657628036167113E-003
                    94 -3.366980545223179E-004
                    95  3.293629157540127E-003
                    96 -2.545206755474883E-004
                    97  5.380255277580896E-005
                    98 -3.510333335822507E-004
                    99 -7.723702743837403E-005
                   100  6.793291598180100E-005
                   101 -7.029862265930974E-004
                   102  1.865011298209715E-004
                   103 -1.171843256066476E-004
                   104  1.603514804992729E-003
                   105  7.348027021318093E-006
                   106 -8.386187425578757E-006
                   107  1.435656913340981E-006
                   108 -2.875377660737164E-005
                   109 -9.525412455744657E-007
                   110 -2.545315049081398E-004
                   111  4.885527650129028E-004
                   112 -3.583894963797212E-005
                   113  6.519753834515922E-004
                   114 -4.152393741207888E-005
                   115 -4.897021597554603E-005
                   116  9.074757767840087E-005
                   117 -8.915556932946901E-006
                   118  2.034137463396106E-005
                   119 -9.969480317275252E-006
                   120 -3.132294438574990E-005
                   121 -1.578167084064551E-007
                   122 -9.124435843111016E-005
                   123 -7.611559029356748E-004
                   124  2.419337479668758E-004
                   125 -3.211590678359588E-004
                   126 -1.318044821748334E-004
                   127  7.962082940401051E-006
                   128 -5.423957637844463E-005
                   129  6.155656357077565E-004
                   130 -9.964867435781597E-006
                   131  7.112266207363745E-005
                   132  5.570268410773168E-004
                   133 -4.511314612308461E-005
                   134  4.107480468298803E-004
                   135  1.080508038914137E-006
                   136  3.809899712294979E-005
                   137  2.694434455385309E-006
                   138 -3.654979927880232E-005
                   139 -4.201202800795833E-006
                   140  1.940182644614858E-004
                   141 -2.724142466891983E-004
                   142 -8.427320274894805E-006
                   143 -2.372777270846492E-004
                   144  2.544094826320189E-005
                   145 -1.301612354225845E-005
                   146  1.310585461753909E-005
                   147 -2.388100842841049E-006
                   148 -6.070263674623612E-006
                   149 -3.676427214103119E-006
                   150 -2.069644854028540E-005
                   151  1.240837354643934E-006
                   152 -3.529572064870227E-005
                   153 -7.705410352047234E-004
                   154  2.401300271259553E-004
                   155 -2.268525149336551E-004
                   156 -1.085506826855895E-004
                   157 -9.959599339845444E-006
                   158  3.589862365747083E-005
                   159  5.132510179272776E-004
                   160  8.635036438383682E-006