[Molden Format]
[Atoms] AU
  N     1    7    -4.4891757400    0.0982420000   -0.3006910200        
  C     2    6    -1.7536193000   -0.0033299200   -0.1352871200        
  C     3    6    -0.3639952300    0.2134853400   -2.3567540000        
  C     4    6    -0.4688414300   -0.1898998400    2.1542229600        
  C     5    6     2.2496183100    0.1959744100   -2.2874331400        
  C     6    6     2.1477627400   -0.1632116500    2.2126303100        
  C     7    6     3.5138700900    0.0194703600   -0.0055103300        
  H     8    1    -5.1451082500   -1.7437486300   -0.4208542400        
  H     9    1    -5.1139405500    0.6643817200    1.4500863800        
  H    10    1    -1.3457225800    0.4109688500   -4.1173666400        
  H    11    1    -1.5147427000   -0.3727502600    3.8827049800        
  H    12    1     3.3007865400    0.3545706500   -4.0153811600        
  H    13    1     3.1132813500   -0.3025595400    3.9920558600        
  H    14    1     5.5420717300    0.0283588000    0.0417398800        
[5D]
[7F]
[GTO]
  1  0
   s    12 1.00
  0.114200D+05  0.172695D-04
  0.171200D+04  0.134411D-03
  0.389300D+03  0.694561D-03
  0.110000D+03  0.278531D-02
  0.355700D+02  0.863457D-02
  0.125400D+02  0.199805D-01
  0.464400D+01  0.262908D-01
  0.129300D+01 -0.243845D-01
  0.511800D+00 -0.924934D-01
  0.178700D+00 -0.339683D+00
  0.246240D-01  0.345111D+00
  0.112530D-01  0.752750D+00
   s    10 1.00
  0.114200D+05  0.523000D-03
  0.171200D+04  0.404500D-02
  0.389300D+03  0.207750D-01
  0.110000D+03  0.807269D-01
  0.355700D+02  0.233074D+00
  0.125400D+02  0.433501D+00
  0.464400D+01  0.347472D+00
  0.129300D+01  0.412620D-01
  0.511800D+00 -0.850799D-02
  0.178700D+00  0.238400D-02
   s    10 1.00
  0.114200D+05 -0.115000D-03
  0.171200D+04 -0.895000D-03
  0.389300D+03 -0.462400D-02
  0.110000D+03 -0.185280D-01
  0.355700D+02 -0.573390D-01
  0.125400D+02 -0.132076D+00
  0.464400D+01 -0.172510D+00
  0.129300D+01  0.151814D+00
  0.511800D+00  0.599944D+00
  0.178700D+00  0.387462D+00
   s     1 1.00
  0.129300D+01  0.100000D+01
   s     1 1.00
  0.178700D+00  0.100000D+01
   p     5 1.00
  0.266300D+02  0.146700D-01
  0.594800D+01  0.917640D-01
  0.174200D+01  0.298683D+00
  0.555000D+00  0.498487D+00
  0.172500D+00  0.337023D+00
   p     1 1.00
  0.174200D+01  0.100000D+01
   p     1 1.00
  0.555000D+00  0.100000D+01
   d     1 1.00
  0.165400D+01  0.100000D+01
   d     1 1.00
  0.469000D+00  0.100000D+01
   f     1 1.00
  0.109300D+01  0.100000D+01
  
  2  0
   s    10 1.00
  0.823600D+04  0.531000D-03
  0.123500D+04  0.410800D-02
  0.280800D+03  0.210870D-01
  0.792700D+02  0.818530D-01
  0.255900D+02  0.234817D+00
  0.899700D+01  0.434401D+00
  0.331900D+01  0.346129D+00
  0.905900D+00  0.393780D-01
  0.364300D+00 -0.898300D-02
  0.128500D+00  0.238500D-02
   s    10 1.00
  0.823600D+04 -0.113000D-03
  0.123500D+04 -0.878000D-03
  0.280800D+03 -0.454000D-02
  0.792700D+02 -0.181330D-01
  0.255900D+02 -0.557600D-01
  0.899700D+01 -0.126895D+00
  0.331900D+01 -0.170352D+00
  0.905900D+00  0.140382D+00
  0.364300D+00  0.598684D+00
  0.128500D+00  0.395389D+00
   s     1 1.00
  0.905900D+00  0.100000D+01
   s     1 1.00
  0.364300D+00  0.100000D+01
   p     5 1.00
  0.187100D+02  0.140310D-01
  0.413300D+01  0.868660D-01
  0.120000D+01  0.290216D+00
  0.382700D+00  0.501008D+00
  0.120900D+00  0.343406D+00
   p     1 1.00
  0.382700D+00  0.100000D+01
   p     1 1.00
  0.120900D+00  0.100000D+01
   d     1 1.00
  0.109700D+01  0.100000D+01
   d     1 1.00
  0.318000D+00  0.100000D+01
   f     1 1.00
  0.761000D+00  0.100000D+01
  
  3  0
   s    10 1.00
  0.823600D+04  0.531000D-03
  0.123500D+04  0.410800D-02
  0.280800D+03  0.210870D-01
  0.792700D+02  0.818530D-01
  0.255900D+02  0.234817D+00
  0.899700D+01  0.434401D+00
  0.331900D+01  0.346129D+00
  0.905900D+00  0.393780D-01
  0.364300D+00 -0.898300D-02
  0.128500D+00  0.238500D-02
   s    10 1.00
  0.823600D+04 -0.113000D-03
  0.123500D+04 -0.878000D-03
  0.280800D+03 -0.454000D-02
  0.792700D+02 -0.181330D-01
  0.255900D+02 -0.557600D-01
  0.899700D+01 -0.126895D+00
  0.331900D+01 -0.170352D+00
  0.905900D+00  0.140382D+00
  0.364300D+00  0.598684D+00
  0.128500D+00  0.395389D+00
   s     1 1.00
  0.905900D+00  0.100000D+01
   s     1 1.00
  0.364300D+00  0.100000D+01
   p     5 1.00
  0.187100D+02  0.140310D-01
  0.413300D+01  0.868660D-01
  0.120000D+01  0.290216D+00
  0.382700D+00  0.501008D+00
  0.120900D+00  0.343406D+00
   p     1 1.00
  0.382700D+00  0.100000D+01
   p     1 1.00
  0.120900D+00  0.100000D+01
   d     1 1.00
  0.109700D+01  0.100000D+01
   d     1 1.00
  0.318000D+00  0.100000D+01
   f     1 1.00
  0.761000D+00  0.100000D+01
  
  4  0
   s    10 1.00
  0.823600D+04  0.531000D-03
  0.123500D+04  0.410800D-02
  0.280800D+03  0.210870D-01
  0.792700D+02  0.818530D-01
  0.255900D+02  0.234817D+00
  0.899700D+01  0.434401D+00
  0.331900D+01  0.346129D+00
  0.905900D+00  0.393780D-01
  0.364300D+00 -0.898300D-02
  0.128500D+00  0.238500D-02
   s    10 1.00
  0.823600D+04 -0.113000D-03
  0.123500D+04 -0.878000D-03
  0.280800D+03 -0.454000D-02
  0.792700D+02 -0.181330D-01
  0.255900D+02 -0.557600D-01
  0.899700D+01 -0.126895D+00
  0.331900D+01 -0.170352D+00
  0.905900D+00  0.140382D+00
  0.364300D+00  0.598684D+00
  0.128500D+00  0.395389D+00
   s     1 1.00
  0.905900D+00  0.100000D+01
   s     1 1.00
  0.364300D+00  0.100000D+01
   p     5 1.00
  0.187100D+02  0.140310D-01
  0.413300D+01  0.868660D-01
  0.120000D+01  0.290216D+00
  0.382700D+00  0.501008D+00
  0.120900D+00  0.343406D+00
   p     1 1.00
  0.382700D+00  0.100000D+01
   p     1 1.00
  0.120900D+00  0.100000D+01
   d     1 1.00
  0.109700D+01  0.100000D+01
   d     1 1.00
  0.318000D+00  0.100000D+01
   f     1 1.00
  0.761000D+00  0.100000D+01
  
  5  0
   s    10 1.00
  0.823600D+04  0.531000D-03
  0.123500D+04  0.410800D-02
  0.280800D+03  0.210870D-01
  0.792700D+02  0.818530D-01
  0.255900D+02  0.234817D+00
  0.899700D+01  0.434401D+00
  0.331900D+01  0.346129D+00
  0.905900D+00  0.393780D-01
  0.364300D+00 -0.898300D-02
  0.128500D+00  0.238500D-02
   s    10 1.00
  0.823600D+04 -0.113000D-03
  0.123500D+04 -0.878000D-03
  0.280800D+03 -0.454000D-02
  0.792700D+02 -0.181330D-01
  0.255900D+02 -0.557600D-01
  0.899700D+01 -0.126895D+00
  0.331900D+01 -0.170352D+00
  0.905900D+00  0.140382D+00
  0.364300D+00  0.598684D+00
  0.128500D+00  0.395389D+00
   s     1 1.00
  0.905900D+00  0.100000D+01
   s     1 1.00
  0.364300D+00  0.100000D+01
   p     5 1.00
  0.187100D+02  0.140310D-01
  0.413300D+01  0.868660D-01
  0.120000D+01  0.290216D+00
  0.382700D+00  0.501008D+00
  0.120900D+00  0.343406D+00
   p     1 1.00
  0.382700D+00  0.100000D+01
   p     1 1.00
  0.120900D+00  0.100000D+01
   d     1 1.00
  0.109700D+01  0.100000D+01
   d     1 1.00
  0.318000D+00  0.100000D+01
   f     1 1.00
  0.761000D+00  0.100000D+01
  
  6  0
   s    10 1.00
  0.823600D+04  0.531000D-03
  0.123500D+04  0.410800D-02
  0.280800D+03  0.210870D-01
  0.792700D+02  0.818530D-01
  0.255900D+02  0.234817D+00
  0.899700D+01  0.434401D+00
  0.331900D+01  0.346129D+00
  0.905900D+00  0.393780D-01
  0.364300D+00 -0.898300D-02
  0.128500D+00  0.238500D-02
   s    10 1.00
  0.823600D+04 -0.113000D-03
  0.123500D+04 -0.878000D-03
  0.280800D+03 -0.454000D-02
  0.792700D+02 -0.181330D-01
  0.255900D+02 -0.557600D-01
  0.899700D+01 -0.126895D+00
  0.331900D+01 -0.170352D+00
  0.905900D+00  0.140382D+00
  0.364300D+00  0.598684D+00
  0.128500D+00  0.395389D+00
   s     1 1.00
  0.905900D+00  0.100000D+01
   s     1 1.00
  0.364300D+00  0.100000D+01
   p     5 1.00
  0.187100D+02  0.140310D-01
  0.413300D+01  0.868660D-01
  0.120000D+01  0.290216D+00
  0.382700D+00  0.501008D+00
  0.120900D+00  0.343406D+00
   p     1 1.00
  0.382700D+00  0.100000D+01
   p     1 1.00
  0.120900D+00  0.100000D+01
   d     1 1.00
  0.109700D+01  0.100000D+01
   d     1 1.00
  0.318000D+00  0.100000D+01
   f     1 1.00
  0.761000D+00  0.100000D+01
  
  7  0
   s    10 1.00
  0.823600D+04  0.531000D-03
  0.123500D+04  0.410800D-02
  0.280800D+03  0.210870D-01
  0.792700D+02  0.818530D-01
  0.255900D+02  0.234817D+00
  0.899700D+01  0.434401D+00
  0.331900D+01  0.346129D+00
  0.905900D+00  0.393780D-01
  0.364300D+00 -0.898300D-02
  0.128500D+00  0.238500D-02
   s    10 1.00
  0.823600D+04 -0.113000D-03
  0.123500D+04 -0.878000D-03
  0.280800D+03 -0.454000D-02
  0.792700D+02 -0.181330D-01
  0.255900D+02 -0.557600D-01
  0.899700D+01 -0.126895D+00
  0.331900D+01 -0.170352D+00
  0.905900D+00  0.140382D+00
  0.364300D+00  0.598684D+00
  0.128500D+00  0.395389D+00
   s     1 1.00
  0.905900D+00  0.100000D+01
   s     1 1.00
  0.364300D+00  0.100000D+01
   p     5 1.00
  0.187100D+02  0.140310D-01
  0.413300D+01  0.868660D-01
  0.120000D+01  0.290216D+00
  0.382700D+00  0.501008D+00
  0.120900D+00  0.343406D+00
   p     1 1.00
  0.382700D+00  0.100000D+01
   p     1 1.00
  0.120900D+00  0.100000D+01
   d     1 1.00
  0.109700D+01  0.100000D+01
   d     1 1.00
  0.318000D+00  0.100000D+01
   f     1 1.00
  0.761000D+00  0.100000D+01
  
  8  0
   s     4 1.00
  0.130100D+02  0.196850D-01
  0.196200D+01  0.137977D+00
  0.444600D+00  0.478148D+00
  0.122000D+00  0.501240D+00
   s     1 1.00
  0.122000D+00  0.100000D+01
   p     1 1.00
  0.727000D+00  0.100000D+01
  
  9  0
   s     4 1.00
  0.130100D+02  0.196850D-01
  0.196200D+01  0.137977D+00
  0.444600D+00  0.478148D+00
  0.122000D+00  0.501240D+00
   s     1 1.00
  0.122000D+00  0.100000D+01
   p     1 1.00
  0.727000D+00  0.100000D+01
  
 10  0
   s     4 1.00
  0.130100D+02  0.196850D-01
  0.196200D+01  0.137977D+00
  0.444600D+00  0.478148D+00
  0.122000D+00  0.501240D+00
   s     1 1.00
  0.122000D+00  0.100000D+01
   p     1 1.00
  0.727000D+00  0.100000D+01
  
 11  0
   s     4 1.00
  0.130100D+02  0.196850D-01
  0.196200D+01  0.137977D+00
  0.444600D+00  0.478148D+00
  0.122000D+00  0.501240D+00
   s     1 1.00
  0.122000D+00  0.100000D+01
   p     1 1.00
  0.727000D+00  0.100000D+01
  
 12  0
   s     4 1.00
  0.130100D+02  0.196850D-01
  0.196200D+01  0.137977D+00
  0.444600D+00  0.478148D+00
  0.122000D+00  0.501240D+00
   s     1 1.00
  0.122000D+00  0.100000D+01
   p     1 1.00
  0.727000D+00  0.100000D+01
  
 13  0
   s     4 1.00
  0.130100D+02  0.196850D-01
  0.196200D+01  0.137977D+00
  0.444600D+00  0.478148D+00
  0.122000D+00  0.501240D+00
   s     1 1.00
  0.122000D+00  0.100000D+01
   p     1 1.00
  0.727000D+00  0.100000D+01
  
 14  0
   s     4 1.00
  0.130100D+02  0.196850D-01
  0.196200D+01  0.137977D+00
  0.444600D+00  0.478148D+00
  0.122000D+00  0.501240D+00
   s     1 1.00
  0.122000D+00  0.100000D+01
   p     1 1.00
  0.727000D+00  0.100000D+01
  
[MO]
 Sym= __1_A__
 Ene=   1.00000000000000     
 Spin= Alpha
 Occup=    1.00000000000000     
                     1  2.015121653585156E-004
                     2  0.998122906520964     
                     3 -3.124729557439888E-003
                     4  1.959388861639724E-003
                     5  7.024711702452361E-003
                     6  6.660361858165042E-003
                     7 -3.793665462996725E-003
                     8  6.748470811110254E-003
                     9 -1.041500360484903E-003
                    10  3.362849266436695E-004
                    11 -7.979410874192462E-004
                    12 -2.170463375159825E-003
                    13  2.318288891971652E-003
                    14 -3.553447201128071E-003
                    15  3.070248422956720E-005
                    16 -6.980332814815354E-005
                    17 -3.565400313212493E-005
                    18  3.398815882537336E-005
                    19  1.896525627200989E-005
                    20 -9.352132335277235E-005
                    21  5.817650186587677E-004
                    22 -2.384273091935761E-004
                    23  2.155427172076718E-004
                    24 -3.192773288292676E-004
                    25 -9.074562760213351E-007
                    26 -9.379204591161900E-005
                    27  6.002045888221966E-005
                    28  3.357618923191062E-005
                    29 -2.291705818570944E-006
                    30 -8.850434068026914E-005
                    31 -8.024579354639785E-006
                    32 -3.192982754231864E-004
                    33  3.648192165535731E-004
                    34  2.681046839524105E-004
                    35 -3.654967792776316E-005
                    36 -2.565300111416550E-003
                    37 -5.030639281060630E-004
                    38 -3.459001746926722E-004
                    39  1.831084947792532E-004
                    40 -1.132088588112432E-004
                    41  1.006814088154545E-003
                    42  4.679659486030420E-003
                    43  6.717657903608242E-004
                    44 -3.558668279227543E-003
                    45 -1.489838479898025E-004
                    46  1.307905404716182E-005
                    47  1.469473910270159E-005
                    48  1.526742122761931E-004
                    49  3.391861216427665E-005
                    50  5.590365616477418E-004
                    51  7.893194981647798E-004
                    52 -9.972567546901458E-005
                    53 -1.867021998081500E-004
                    54 -2.854677991775247E-004
                    55  4.747096297284099E-005
                    56 -3.615244593625139E-005
                    57 -5.749920345173049E-006
                    58  5.265943287016960E-005
                    59 -8.748208101921314E-007
                    60 -3.672835470850074E-005
                    61  5.844893049762266E-006
                    62 -7.767788712011880E-004
                    63 -2.698851456025947E-003
                    64 -7.884249562676526E-005
                    65  2.800732831810950E-003
                    66 -7.013853106620718E-005
                    67 -2.462257016357470E-004
                    68 -3.893104131087303E-004
                    69  8.685502386150463E-004
                    70 -2.534610406882136E-005
                    71  7.015495642242464E-004
                    72  1.745181724218262E-003
                    73  4.443282857508654E-005
                    74 -1.531916128069152E-003
                    75 -4.877501441229770E-005
                    76 -4.486844250068393E-005
                    77  1.823181495098263E-006
                    78  7.874921557865696E-005
                    79  5.567198319618300E-006
                    80  4.888942106428273E-004
                    81  1.629640724349462E-004
                    82 -9.205480124385081E-005
                    83 -6.665110977746678E-005
                    84  2.517039929986291E-006
                    85 -2.527280618880802E-005
                    86 -1.494607555841693E-004
                    87  4.826367887687145E-006
                    88  1.120411062339625E-005
                    89  2.024166844335334E-005
                    90 -7.373676146939324E-005
                    91 -8.656473396875346E-006
                    92  2.670556435597316E-005
                    93 -2.336312587350431E-004
                    94  3.144967172754765E-004
                    95 -1.241374325726915E-003
                    96  3.338339542840760E-004
                    97 -2.606946022773663E-004
                    98  2.315947458241980E-004
                    99  2.173370588699768E-004
                   100  1.353613488866093E-005
                   101  5.157558773116491E-004
                   102 -2.453899809783016E-003
                   103 -1.217174748433668E-004
                   104  1.858514231768045E-004
                   105 -5.117339516137553E-005
                   106 -7.809458712359693E-006
                   107  3.648583538016077E-006
                   108  3.034819866510882E-005
                   109 -4.357677485064027E-007
                   110 -1.264587372687690E-004
                   111 -2.063234841048802E-004
                   112  3.127311603749469E-005
                   113 -2.415789550049858E-004
                   114  3.646141867628544E-005
                   115 -2.718148934916004E-005
                   116  5.173782517930842E-005
                   117  7.589889760668682E-006
                   118  1.661939909918289E-005
                   119 -1.193501145558096E-005
                   120 -5.975439893083497E-006
                   121 -6.675514347177023E-006
                   122 -3.250422657316032E-004
                   123 -9.480315516598003E-004
                   124  1.170352237666600E-004
                   125  9.492746597602875E-004
                   126 -2.665534710398475E-004
                   127 -5.092919758355095E-005
                   128 -4.799430098871984E-005
                   129  5.698163758522513E-004
                   130 -2.690422957476755E-005
                   131  2.985303983059066E-004
                   132  2.899381448342730E-003
                   133  2.882758905724609E-005
                   134  4.806080704845533E-004
                   135  3.654310338044721E-005
                   136 -2.527558354175118E-006
                   137 -4.571016605129050E-006
                   138 -2.058285985815324E-005
                   139  8.538212788023918E-006
                   140  2.594272143538771E-004
                   141  3.814897467476816E-004
                   142  1.885021684024222E-006
                   143 -4.015924208147920E-004
                   144 -2.927355077087125E-005
                   145 -3.809239761266626E-005
                   146 -2.646287534662564E-005
                   147 -4.706028784536368E-006
                   148 -1.432995485164832E-005
                   149 -5.089181033627065E-006
                   150 -8.866021440212550E-005
                   151 -4.435401649873204E-007
                   152 -1.426803802789392E-004
                   153 -3.044454800282484E-004
                   154 -5.139303853488560E-005
                   155  5.532760224708260E-004
                   156 -2.332835638713727E-004
                   157 -2.948665998003975E-005
                   158 -5.597933637590233E-005
                   159 -2.502295449719068E-004
                   160 -3.234744641396733E-005
                   161  2.580687356657398E-004
                   162 -1.223469710400722E-003
                   163 -3.905205514167552E-005
                   164  9.251698601968331E-004
                   165 -2.269576033528675E-005
                   166  9.724628121157357E-006
                   167  1.622356688938599E-006
                   168  2.131110066610370E-005
                   169  5.759546346502074E-006
                   170 -8.846573245046637E-005
                   171  5.187757567511920E-006
                   172  1.372103760877857E-005
                   173  5.934911797869020E-005
                   174  7.539789458366415E-006
                   175 -1.403654212997426E-005
                   176 -2.269266317310545E-006
                   177 -8.996163619224742E-007
                   178 -9.037184272737591E-006
                   179 -9.950650173619194E-008
                   180  5.439594101293068E-006
                   181 -1.918553066626748E-006
                   182 -1.608189314742928E-004
                   183 -4.986448570448671E-004
                   184  3.985387210947148E-005
                   185  2.108941911226845E-004
                   186 -2.246556970918044E-005
                   187  3.961861946232499E-005
                   188 -9.020890307081545E-005
                   189  9.341940823938901E-005
                   190 -2.301769266539690E-005
                   191  4.271591723951267E-004
                   192 -4.573300157997545E-004
                   193 -1.917699918140517E-004
                   194  2.260104006976783E-003
                   195 -4.140546550615473E-006
                   196  5.559314969383047E-006
                   197  5.616514770289055E-007
                   198  2.723505767067290E-007
                   199  1.007087600430276E-007
                   200 -1.333169991967468E-004
                   201 -3.463477776582805E-004
                   202  1.608258318959260E-005
                   203  6.488702359223792E-005
                   204  3.039283065216193E-005
                   205  3.362071794748099E-006
                   206  4.377336886138013E-006
                   207 -1.316917265307875E-006
                   208  2.564068974190172E-005
                   209 -2.111954221653908E-006
                   210 -4.320834211210483E-006
                   211 -3.040793551187887E-006
                   212  3.482132199458046E-004
                   213 -1.002781114859688E-003
                   214  1.076442004339258E-004
                   215  2.852415483780698E-004
                   216 -3.030021062757623E-005
                   217  1.366971868180063E-003
                   218 -1.419466996614049E-003
                   219  1.456746043228322E-004
                   220 -3.581863178871450E-005
                   221 -3.690747047006298E-004
                   222 -3.874936307181628E-004
                   223 -2.345390596114872E-004
                   224 -1.041041518472199E-004
                   225 -1.907198900995926E-006
                   226  4.896703299468091E-005
                   227 -1.935903696960712E-004
                   228 -5.932355608107520E-004
                   229 -2.373652332171848E-005
                   230  1.114582316985932E-005
                   231 -5.483234849533276E-005
                   232  8.983825247824007E-005
                   233 -7.385542866969294E-004
                   234 -2.329220397468642E-006
                   235 -1.505857983964044E-006
                   236  8.345023989630876E-006
                   237 -1.169989902328804E-004
                   238 -2.215929838800862E-004
                   239  2.004029221453046E-005
                   240 -3.246349353614264E-006
                   241  2.409171772455495E-005
                   242 -3.543417329754460E-005
                   243  1.277681778461451E-004
                   244  3.112025093377038E-005
                   245  2.453962546945499E-006
                   246  1.827161648432042E-006
 Sym= __2_A__
 Ene=   2.00000000000000     
 Spin= Alpha
 Occup=    1.00000000000000     
                     1  1.583608931197884E-006
                     2 -9.422737949026178E-005
                     3  1.168007771726985E-003
                     4 -2.163833857214445E-005
                     5  1.188911946136150E-003
                     6  1.409969564832216E-003
                     7 -1.492705134689052E-004
                     8 -8.098494718587739E-005
                     9 -1.564931004052741E-004
                    10  1.048200921833119E-004
                    11 -5.148963648114889E-005
                    12  1.914119625821799E-004
                    13  1.511261428524113E-004
                    14 -1.322414895497251E-005
                    15 -5.633057856579948E-005
                    16  1.929901256585067E-005
                    17 -4.970274030793397E-006
                    18  4.732908929527962E-005
                    19 -4.348453056123572E-007
                    20  7.662199318781889E-005
                    21 -6.609531593545042E-005
                    22  2.240462126851041E-005
                    23  1.214233814344480E-004
                    24 -5.739213996037036E-005
                    25 -5.219854101253459E-005
                    26  1.253212304605143E-004
                    27  1.712998689580715E-005
                    28 -3.209600590386786E-005
                    29 -9.957387246122763E-006
                    30  1.209565058279984E-004
                    31  2.934690575368070E-005
                    32   1.00087141342748     
                    33  8.603194499862930E-003
                    34  2.852297286800749E-003
                    35 -8.412812773448438E-003
                    36 -1.804369773972691E-003
                    37  2.751793837437173E-004
                    38  1.077498658717689E-004
                    39  9.983057876602394E-004
                    40 -1.150254057922953E-004
                    41 -2.607674809675766E-004
                    42  2.759225598375733E-003
                    43 -1.071483408994839E-004
                    44 -2.329377253259911E-005
                    45  3.113838305173827E-004
                    46  1.193732264126261E-005
                    47 -6.337847367547995E-005
                    48  3.439427974532986E-004
                    49 -4.171784528192444E-007
                    50 -9.789208663460438E-004
                    51 -2.532859575646539E-004
                    52  1.653303838080976E-004
                    53 -1.576742925462919E-004
                    54  1.477145623257903E-005
                    55 -1.596882446373707E-005
                    56  2.677842756579566E-004
                    57 -8.632789365874089E-006
                    58 -2.577235411468808E-005
                    59 -2.394419889320131E-005
                    60  6.764641324134924E-005
                    61  8.847417326359217E-006
                    62  1.537027614659022E-002
                    63 -1.649729902282870E-003
                    64 -2.870876130903697E-004
                    65  2.866567676342214E-003
                    66 -2.247492067014232E-004
                    67 -4.788000143115388E-006
                    68  3.638229633880866E-004
                    69  3.294277617352734E-005
                    70 -3.394960119739658E-005
                    71  3.451355286714434E-004
                    72  3.798518006245550E-004
                    73  1.908576295481167E-004
                    74 -1.753682374652839E-003
                    75  2.124195793245337E-006
                    76  2.512898036672484E-005
                    77  3.491329484249988E-006
                    78 -4.312975080909758E-005
                    79 -2.394491652347645E-006
                    80 -4.883392575210974E-004
                    81 -3.860823873707883E-004
                    82  2.363621929065084E-005
                    83  7.976090953744971E-004
                    84  2.749407497567211E-005
                    85  3.850973854565034E-005
                    86  1.052641574210839E-004
                    87  1.714058283585831E-005
                    88 -2.348318853070852E-005
                    89 -2.192931173713909E-005
                    90 -2.507087045068728E-005
                    91  2.731826260794735E-006
                    92  1.751164451655846E-002
                    93 -1.657628032085172E-003
                    94 -3.366980505874100E-004
                    95  3.293629147562426E-003
                    96 -2.545206635077515E-004
                    97  5.380255257176796E-005
                    98 -3.510333308398479E-004
                    99 -7.723702854726185E-005
                   100  6.793291577863194E-005
                   101 -7.029862253977422E-004
                   102  1.865011284164987E-004
                   103 -1.171843255251512E-004
                   104  1.603514803913048E-003
                   105  7.348026886909500E-006
                   106 -8.386187488346555E-006
                   107  1.435656897690789E-006
                   108 -2.875377604199720E-005
                   109 -9.525412173027849E-007
                   110 -2.545315045717089E-004
                   111  4.885527630561983E-004
                   112 -3.583894960448119E-005
                   113  6.519753824271258E-004
                   114 -4.152393723763076E-005
                   115 -4.897021601798798E-005
                   116  9.074757741130573E-005
                   117 -8.915556976242549E-006
                   118  2.034137479098426E-005
                   119 -9.969480290218498E-006
                   120 -3.132294450245874E-005
                   121 -1.578167258064376E-007
                   122 -9.124432348714261E-005
                   123 -7.611559048599478E-004
                   124  2.419337476987553E-004
                   125 -3.211590642782800E-004
                   126 -1.318044835530780E-004
                   127  7.962083009190246E-006
                   128 -5.423957751599703E-005
                   129  6.155656350397380E-004
                   130 -9.964867440306103E-006
                   131  7.112266222612215E-005
                   132  5.570268423662403E-004
                   133 -4.511314598665521E-005
                   134  4.107480454863592E-004
                   135  1.080508000603341E-006
                   136  3.809899694667484E-005
                   137  2.694434462835495E-006
                   138 -3.654979925265586E-005
                   139 -4.201202775380919E-006
                   140  1.940182643983323E-004
                   141 -2.724142461208508E-004
                   142 -8.427320308646056E-006
                   143 -2.372777266180360E-004
                   144  2.544094822335957E-005
                   145 -1.301612351563050E-005
                   146  1.310585457156970E-005
                   147 -2.388100841392541E-006
                   148 -6.070263626018486E-006
                   149 -3.676427215016399E-006
                   150 -2.069644862762398E-005
                   151  1.240837344996839E-006
                   152 -3.529567212449021E-005
                   153 -7.705410336437558E-004
                   154  2.401300266721917E-004
                   155 -2.268525107917849E-004
                   156 -1.085506905780292E-004
                   157 -9.959599150532926E-006
                   158  3.589862164653109E-005
                   159  5.132510175260333E-004
                   160  8.635036423855908E-006