[Molden Format]
[Atoms] AU
  N     1    7    -4.5084635900   -0.0988418000   -0.4118517900        
  C     2    6    -1.7501841200   -0.0760954600   -0.1792120000        
  C     3    6    -0.3509749300    0.2171160000   -2.3788961800        
  C     4    6    -0.4805707700   -0.3034055100    2.1190733700        
  C     5    6     2.2663504200    0.2748705600   -2.2873080400        
  C     6    6     2.1302949200   -0.2419847400    2.2011925500        
  C     7    6     3.5098980000    0.0470240900   -0.0036732100        
  H     8    1    -5.0672997700   -1.7856028500    0.4303730600        
  H     9    1    -5.1151307500    1.1337689700    0.9747743100        
  H    10    1    -1.3291721100    0.4012481700   -4.1417569500        
  H    11    1    -1.5421008800   -0.5301805100    3.8328713100        
  H    12    1     3.3288733500    0.5028577800   -3.9999547600        
  H    13    1     3.0874337800   -0.4213468200    3.9815229400        
  H    14    1     5.5371969800    0.0943149200    0.0638119900        
[5D]
[7F]
[GTO]
  1  0
   s    12 1.00
  0.114200D+05  0.172695D-04
  0.171200D+04  0.134411D-03
  0.389300D+03  0.694561D-03
  0.110000D+03  0.278531D-02
  0.355700D+02  0.863457D-02
  0.125400D+02  0.199805D-01
  0.464400D+01  0.262908D-01
  0.129300D+01 -0.243845D-01
  0.511800D+00 -0.924934D-01
  0.178700D+00 -0.339683D+00
  0.246240D-01  0.345111D+00
  0.112530D-01  0.752750D+00
   s    10 1.00
  0.114200D+05  0.523000D-03
  0.171200D+04  0.404500D-02
  0.389300D+03  0.207750D-01
  0.110000D+03  0.807269D-01
  0.355700D+02  0.233074D+00
  0.125400D+02  0.433501D+00
  0.464400D+01  0.347472D+00
  0.129300D+01  0.412620D-01
  0.511800D+00 -0.850799D-02
  0.178700D+00  0.238400D-02
   s    10 1.00
  0.114200D+05 -0.115000D-03
  0.171200D+04 -0.895000D-03
  0.389300D+03 -0.462400D-02
  0.110000D+03 -0.185280D-01
  0.355700D+02 -0.573390D-01
  0.125400D+02 -0.132076D+00
  0.464400D+01 -0.172510D+00
  0.129300D+01  0.151814D+00
  0.511800D+00  0.599944D+00
  0.178700D+00  0.387462D+00
   s     1 1.00
  0.129300D+01  0.100000D+01
   s     1 1.00
  0.178700D+00  0.100000D+01
   p     5 1.00
  0.266300D+02  0.146700D-01
  0.594800D+01  0.917640D-01
  0.174200D+01  0.298683D+00
  0.555000D+00  0.498487D+00
  0.172500D+00  0.337023D+00
   p     1 1.00
  0.174200D+01  0.100000D+01
   p     1 1.00
  0.555000D+00  0.100000D+01
   d     1 1.00
  0.165400D+01  0.100000D+01
   d     1 1.00
  0.469000D+00  0.100000D+01
   f     1 1.00
  0.109300D+01  0.100000D+01
  
  2  0
   s    10 1.00
  0.823600D+04  0.531000D-03
  0.123500D+04  0.410800D-02
  0.280800D+03  0.210870D-01
  0.792700D+02  0.818530D-01
  0.255900D+02  0.234817D+00
  0.899700D+01  0.434401D+00
  0.331900D+01  0.346129D+00
  0.905900D+00  0.393780D-01
  0.364300D+00 -0.898300D-02
  0.128500D+00  0.238500D-02
   s    10 1.00
  0.823600D+04 -0.113000D-03
  0.123500D+04 -0.878000D-03
  0.280800D+03 -0.454000D-02
  0.792700D+02 -0.181330D-01
  0.255900D+02 -0.557600D-01
  0.899700D+01 -0.126895D+00
  0.331900D+01 -0.170352D+00
  0.905900D+00  0.140382D+00
  0.364300D+00  0.598684D+00
  0.128500D+00  0.395389D+00
   s     1 1.00
  0.905900D+00  0.100000D+01
   s     1 1.00
  0.364300D+00  0.100000D+01
   p     5 1.00
  0.187100D+02  0.140310D-01
  0.413300D+01  0.868660D-01
  0.120000D+01  0.290216D+00
  0.382700D+00  0.501008D+00
  0.120900D+00  0.343406D+00
   p     1 1.00
  0.382700D+00  0.100000D+01
   p     1 1.00
  0.120900D+00  0.100000D+01
   d     1 1.00
  0.109700D+01  0.100000D+01
   d     1 1.00
  0.318000D+00  0.100000D+01
   f     1 1.00
  0.761000D+00  0.100000D+01
  
  3  0
   s    10 1.00
  0.823600D+04  0.531000D-03
  0.123500D+04  0.410800D-02
  0.280800D+03  0.210870D-01
  0.792700D+02  0.818530D-01
  0.255900D+02  0.234817D+00
  0.899700D+01  0.434401D+00
  0.331900D+01  0.346129D+00
  0.905900D+00  0.393780D-01
  0.364300D+00 -0.898300D-02
  0.128500D+00  0.238500D-02
   s    10 1.00
  0.823600D+04 -0.113000D-03
  0.123500D+04 -0.878000D-03
  0.280800D+03 -0.454000D-02
  0.792700D+02 -0.181330D-01
  0.255900D+02 -0.557600D-01
  0.899700D+01 -0.126895D+00
  0.331900D+01 -0.170352D+00
  0.905900D+00  0.140382D+00
  0.364300D+00  0.598684D+00
  0.128500D+00  0.395389D+00
   s     1 1.00
  0.905900D+00  0.100000D+01
   s     1 1.00
  0.364300D+00  0.100000D+01
   p     5 1.00
  0.187100D+02  0.140310D-01
  0.413300D+01  0.868660D-01
  0.120000D+01  0.290216D+00
  0.382700D+00  0.501008D+00
  0.120900D+00  0.343406D+00
   p     1 1.00
  0.382700D+00  0.100000D+01
   p     1 1.00
  0.120900D+00  0.100000D+01
   d     1 1.00
  0.109700D+01  0.100000D+01
   d     1 1.00
  0.318000D+00  0.100000D+01
   f     1 1.00
  0.761000D+00  0.100000D+01
  
  4  0
   s    10 1.00
  0.823600D+04  0.531000D-03
  0.123500D+04  0.410800D-02
  0.280800D+03  0.210870D-01
  0.792700D+02  0.818530D-01
  0.255900D+02  0.234817D+00
  0.899700D+01  0.434401D+00
  0.331900D+01  0.346129D+00
  0.905900D+00  0.393780D-01
  0.364300D+00 -0.898300D-02
  0.128500D+00  0.238500D-02
   s    10 1.00
  0.823600D+04 -0.113000D-03
  0.123500D+04 -0.878000D-03
  0.280800D+03 -0.454000D-02
  0.792700D+02 -0.181330D-01
  0.255900D+02 -0.557600D-01
  0.899700D+01 -0.126895D+00
  0.331900D+01 -0.170352D+00
  0.905900D+00  0.140382D+00
  0.364300D+00  0.598684D+00
  0.128500D+00  0.395389D+00
   s     1 1.00
  0.905900D+00  0.100000D+01
   s     1 1.00
  0.364300D+00  0.100000D+01
   p     5 1.00
  0.187100D+02  0.140310D-01
  0.413300D+01  0.868660D-01
  0.120000D+01  0.290216D+00
  0.382700D+00  0.501008D+00
  0.120900D+00  0.343406D+00
   p     1 1.00
  0.382700D+00  0.100000D+01
   p     1 1.00
  0.120900D+00  0.100000D+01
   d     1 1.00
  0.109700D+01  0.100000D+01
   d     1 1.00
  0.318000D+00  0.100000D+01
   f     1 1.00
  0.761000D+00  0.100000D+01
  
  5  0
   s    10 1.00
  0.823600D+04  0.531000D-03
  0.123500D+04  0.410800D-02
  0.280800D+03  0.210870D-01
  0.792700D+02  0.818530D-01
  0.255900D+02  0.234817D+00
  0.899700D+01  0.434401D+00
  0.331900D+01  0.346129D+00
  0.905900D+00  0.393780D-01
  0.364300D+00 -0.898300D-02
  0.128500D+00  0.238500D-02
   s    10 1.00
  0.823600D+04 -0.113000D-03
  0.123500D+04 -0.878000D-03
  0.280800D+03 -0.454000D-02
  0.792700D+02 -0.181330D-01
  0.255900D+02 -0.557600D-01
  0.899700D+01 -0.126895D+00
  0.331900D+01 -0.170352D+00
  0.905900D+00  0.140382D+00
  0.364300D+00  0.598684D+00
  0.128500D+00  0.395389D+00
   s     1 1.00
  0.905900D+00  0.100000D+01
   s     1 1.00
  0.364300D+00  0.100000D+01
   p     5 1.00
  0.187100D+02  0.140310D-01
  0.413300D+01  0.868660D-01
  0.120000D+01  0.290216D+00
  0.382700D+00  0.501008D+00
  0.120900D+00  0.343406D+00
   p     1 1.00
  0.382700D+00  0.100000D+01
   p     1 1.00
  0.120900D+00  0.100000D+01
   d     1 1.00
  0.109700D+01  0.100000D+01
   d     1 1.00
  0.318000D+00  0.100000D+01
   f     1 1.00
  0.761000D+00  0.100000D+01
  
  6  0
   s    10 1.00
  0.823600D+04  0.531000D-03
  0.123500D+04  0.410800D-02
  0.280800D+03  0.210870D-01
  0.792700D+02  0.818530D-01
  0.255900D+02  0.234817D+00
  0.899700D+01  0.434401D+00
  0.331900D+01  0.346129D+00
  0.905900D+00  0.393780D-01
  0.364300D+00 -0.898300D-02
  0.128500D+00  0.238500D-02
   s    10 1.00
  0.823600D+04 -0.113000D-03
  0.123500D+04 -0.878000D-03
  0.280800D+03 -0.454000D-02
  0.792700D+02 -0.181330D-01
  0.255900D+02 -0.557600D-01
  0.899700D+01 -0.126895D+00
  0.331900D+01 -0.170352D+00
  0.905900D+00  0.140382D+00
  0.364300D+00  0.598684D+00
  0.128500D+00  0.395389D+00
   s     1 1.00
  0.905900D+00  0.100000D+01
   s     1 1.00
  0.364300D+00  0.100000D+01
   p     5 1.00
  0.187100D+02  0.140310D-01
  0.413300D+01  0.868660D-01
  0.120000D+01  0.290216D+00
  0.382700D+00  0.501008D+00
  0.120900D+00  0.343406D+00
   p     1 1.00
  0.382700D+00  0.100000D+01
   p     1 1.00
  0.120900D+00  0.100000D+01
   d     1 1.00
  0.109700D+01  0.100000D+01
   d     1 1.00
  0.318000D+00  0.100000D+01
   f     1 1.00
  0.761000D+00  0.100000D+01
  
  7  0
   s    10 1.00
  0.823600D+04  0.531000D-03
  0.123500D+04  0.410800D-02
  0.280800D+03  0.210870D-01
  0.792700D+02  0.818530D-01
  0.255900D+02  0.234817D+00
  0.899700D+01  0.434401D+00
  0.331900D+01  0.346129D+00
  0.905900D+00  0.393780D-01
  0.364300D+00 -0.898300D-02
  0.128500D+00  0.238500D-02
   s    10 1.00
  0.823600D+04 -0.113000D-03
  0.123500D+04 -0.878000D-03
  0.280800D+03 -0.454000D-02
  0.792700D+02 -0.181330D-01
  0.255900D+02 -0.557600D-01
  0.899700D+01 -0.126895D+00
  0.331900D+01 -0.170352D+00
  0.905900D+00  0.140382D+00
  0.364300D+00  0.598684D+00
  0.128500D+00  0.395389D+00
   s     1 1.00
  0.905900D+00  0.100000D+01
   s     1 1.00
  0.364300D+00  0.100000D+01
   p     5 1.00
  0.187100D+02  0.140310D-01
  0.413300D+01  0.868660D-01
  0.120000D+01  0.290216D+00
  0.382700D+00  0.501008D+00
  0.120900D+00  0.343406D+00
   p     1 1.00
  0.382700D+00  0.100000D+01
   p     1 1.00
  0.120900D+00  0.100000D+01
   d     1 1.00
  0.109700D+01  0.100000D+01
   d     1 1.00
  0.318000D+00  0.100000D+01
   f     1 1.00
  0.761000D+00  0.100000D+01
  
  8  0
   s     4 1.00
  0.130100D+02  0.196850D-01
  0.196200D+01  0.137977D+00
  0.444600D+00  0.478148D+00
  0.122000D+00  0.501240D+00
   s     1 1.00
  0.122000D+00  0.100000D+01
   p     1 1.00
  0.727000D+00  0.100000D+01
  
  9  0
   s     4 1.00
  0.130100D+02  0.196850D-01
  0.196200D+01  0.137977D+00
  0.444600D+00  0.478148D+00
  0.122000D+00  0.501240D+00
   s     1 1.00
  0.122000D+00  0.100000D+01
   p     1 1.00
  0.727000D+00  0.100000D+01
  
 10  0
   s     4 1.00
  0.130100D+02  0.196850D-01
  0.196200D+01  0.137977D+00
  0.444600D+00  0.478148D+00
  0.122000D+00  0.501240D+00
   s     1 1.00
  0.122000D+00  0.100000D+01
   p     1 1.00
  0.727000D+00  0.100000D+01
  
 11  0
   s     4 1.00
  0.130100D+02  0.196850D-01
  0.196200D+01  0.137977D+00
  0.444600D+00  0.478148D+00
  0.122000D+00  0.501240D+00
   s     1 1.00
  0.122000D+00  0.100000D+01
   p     1 1.00
  0.727000D+00  0.100000D+01
  
 12  0
   s     4 1.00
  0.130100D+02  0.196850D-01
  0.196200D+01  0.137977D+00
  0.444600D+00  0.478148D+00
  0.122000D+00  0.501240D+00
   s     1 1.00
  0.122000D+00  0.100000D+01
   p     1 1.00
  0.727000D+00  0.100000D+01
  
 13  0
   s     4 1.00
  0.130100D+02  0.196850D-01
  0.196200D+01  0.137977D+00
  0.444600D+00  0.478148D+00
  0.122000D+00  0.501240D+00
   s     1 1.00
  0.122000D+00  0.100000D+01
   p     1 1.00
  0.727000D+00  0.100000D+01
  
 14  0
   s     4 1.00
  0.130100D+02  0.196850D-01
  0.196200D+01  0.137977D+00
  0.444600D+00  0.478148D+00
  0.122000D+00  0.501240D+00
   s     1 1.00
  0.122000D+00  0.100000D+01
   p     1 1.00
  0.727000D+00  0.100000D+01
  
[MO]
 Sym= __1_A__
 Ene=  0.000000000000000E+000
 Spin= Alpha
 Occup=    2.00000000000000     
                     1 -6.518576645078534E-004
                     2  0.997687556682631     
                     3 -3.519116995333824E-002
                     4  2.111383996362905E-003
                     5  4.911200251429623E-003
                     6  1.356484021116485E-002
                     7 -3.915134020206201E-003
                     8  2.681451556706138E-002
                     9 -1.306323897987441E-003
                    10  3.093985356674288E-004
                    11 -1.949135322209108E-003
                    12 -3.666596946014179E-003
                    13  8.787953597527400E-004
                    14 -5.523709753083249E-003
                    15  1.813589839869647E-004
                    16  8.101076468244365E-005
                    17 -4.274508890171655E-005
                    18  5.250087396754336E-005
                    19 -2.895299455154272E-005
                    20  7.294759163820074E-004
                    21  6.792654051900737E-004
                    22 -2.085136839689195E-004
                    23  5.667426381301612E-005
                    24 -1.422268444064705E-004
                    25  2.533048897440818E-005
                    26 -5.967633729180447E-005
                    27  5.777497298684851E-006
                    28  2.813863306286542E-005
                    29  2.414885061700185E-005
                    30  5.232400664583364E-005
                    31 -1.602535671676071E-005
                    32 -5.159814545451873E-004
                    33  3.601795357698463E-004
                    34  2.144833391923570E-004
                    35  1.565501779963802E-004
                    36  8.245495299636651E-004
                    37 -7.659514947818187E-004
                    38 -9.483098177221300E-004
                    39 -7.457317285638264E-004
                    40 -2.250398500693201E-005
                    41  7.828356294056345E-005
                    42  2.945770148535416E-003
                    43  9.167149145968401E-005
                    44 -6.778993916866913E-004
                    45  4.204465498368490E-005
                    46 -3.645664784797012E-004
                    47 -6.594934308848481E-006
                    48 -5.827230098079110E-005
                    49  4.537796234982253E-005
                    50 -1.517233773159059E-004
                    51 -3.722856145709650E-004
                    52  2.373361749765263E-005
                    53  9.356398239518113E-005
                    54  4.007689978488750E-005
                    55  1.180338007758150E-004
                    56  3.809210619914945E-007
                    57  4.941479739545806E-006
                    58  1.189499185912386E-004
                    59 -4.630466365072579E-006
                    60 -3.608046935864972E-005
                    61 -2.229608815939947E-005
                    62 -7.440066759785743E-004
                    63  5.175007952758213E-004
                    64 -1.161095146853640E-004
                    65  2.604611068030382E-003
                    66 -3.611791088627934E-003
                    67 -5.626593337761566E-004
                    68  6.941232318282037E-004
                    69  5.551878962942622E-004
                    70 -3.063780169205961E-005
                    71  3.867892854892095E-004
                    72  8.026971751684630E-004
                    73  3.778963398719941E-004
                    74 -2.335264397885797E-003
                    75  1.219058582081160E-004
                    76 -5.994255479981682E-005
                    77 -4.222228053804198E-005
                    78  4.293066297907636E-006
                    79  1.618407066634425E-005
                    80 -2.982531918561397E-005
                    81 -2.872261544545911E-004
                    82 -1.326401201393536E-005
                    83 -8.929233602350477E-006
                    84  4.635638934245007E-005
                    85 -2.131830135454454E-005
                    86 -1.392394544905262E-004
                    87 -1.182820646901363E-005
                    88 -1.296008617237305E-005
                    89  2.010164046740091E-005
                    90 -7.101639196603665E-005
                    91  2.643744173067309E-006
                    92  2.444859690190890E-005
                    93 -1.240515846273770E-003
                    94  2.459517035460178E-004
                    95 -8.185266408432221E-004
                    96  5.379124346410206E-005
                    97 -4.252479743769889E-004
                    98  1.157883296527562E-003
                    99 -4.942387275224666E-005
                   100 -6.515500112455181E-006
                   101  1.475827375166405E-005
                   102 -1.029182125536605E-003
                   103  1.234776961984195E-004
                   104 -6.182822624481682E-004
                   105 -6.124251668494833E-005
                   106  2.598964974481619E-006
                   107  1.900227621978779E-005
                   108  5.734543126777938E-005
                   109  1.089896181346495E-005
                   110  1.273525351383231E-004
                   111  3.653563307879297E-004
                   112  1.461120337138607E-005
                   113 -1.321945644188990E-004
                   114 -4.527366032851113E-005
                   115 -3.473909277424818E-005
                   116 -2.440537245990572E-006
                   117 -7.080272711895269E-006
                   118 -2.601551298015944E-005
                   119 -3.077158183133785E-006
                   120  1.284011371335676E-005
                   121 -1.258099828278817E-006
                   122 -2.684759365124138E-004
                   123 -1.896637169578165E-003
                   124  1.441480050292422E-004
                   125  4.826733822056290E-004
                   126  1.821197430651227E-003
                   127  6.202598802365412E-005
                   128 -1.628361758013909E-004
                   129  3.958727391327402E-004
                   130 -2.312459196509337E-005
                   131  2.930680064366793E-004
                   132  3.239672080461049E-004
                   133 -8.590043355677555E-005
                   134  9.114696317016136E-004
                   135  6.810587056687233E-005
                   136 -2.027578784935512E-005
                   137 -5.027633827547116E-006
                   138 -6.332779358881046E-005
                   139  6.248249429066043E-006
                   140  1.942680623072279E-004
                   141  5.548769900569288E-005
                   142 -4.377403327389574E-006
                   143 -2.541190225841072E-004
                   144 -4.495277960955704E-006
                   145 -4.348730903533348E-006
                   146 -3.337614016920789E-005
                   147 -4.577910168925119E-006
                   148  1.994123595668108E-005
                   149 -9.540700977483184E-007
                   150 -7.462783569157376E-005
                   151  1.341766628310578E-006
                   152 -1.040613825734523E-004
                   153 -6.795075209902188E-005
                   154 -7.357797327711150E-005
                   155  7.851033284325254E-004
                   156  2.883225488805192E-004
                   157  3.622558417059367E-005
                   158  1.769445666104722E-004
                   159 -3.616181599158086E-004
                   160  1.906917206305702E-006
                   161 -6.716012990061599E-005
                   162  2.127818106302173E-004
                   163 -9.466708773583676E-005
                   164  9.978689272734816E-004
                   165  1.677006482267321E-006
                   166 -1.374839631169243E-005
                   167 -4.736086393969594E-006
                   168  2.036841420676350E-005
                   169  8.669297708425897E-006
                   170 -7.646748945213389E-005
                   171  9.465303468891182E-006
                   172  2.552582635010323E-005
                   173 -1.105348878465483E-004
                   174 -1.247534293660952E-006
                   175  5.613740105820472E-006
                   176 -1.719034496470417E-005
                   177  7.738530397137178E-007
                   178  4.194806829726080E-006
                   179  3.364334418345342E-007
                   180 -6.318570680366821E-006
                   181  4.186651139243209E-007
                   182 -1.054016948972175E-004
                   183 -9.954286284162800E-005
                   184  2.427072271292290E-005
                   185  2.193813738789181E-004
                   186 -2.546524207178144E-004
                   187  1.620395451237128E-004
                   188 -1.212612922757764E-004
                   189  1.306285284360400E-004
                   190 -3.542737481653126E-005
                   191  3.448191316497777E-004
                   192 -4.290559783193874E-004
                   193 -2.423463079741144E-005
                   194  3.381380991868765E-004
                   195  2.838129750274774E-005
                   196 -1.544716303366362E-005
                   197 -3.796638125490256E-006
                   198 -1.342859410829162E-005
                   199  8.878773891023605E-007
                   200 -2.120051313892365E-005
                   201 -1.686238187763545E-004
                   202  4.177752575197490E-006
                   203 -1.440359068503200E-005
                   204  1.587770063836969E-005
                   205 -2.714011487637925E-006
                   206  5.706219963337960E-006
                   207 -1.089654867823898E-006
                   208  8.213717146286062E-006
                   209 -1.820414926408057E-006
                   210 -4.972973938497234E-006
                   211 -3.292661526867490E-007
                   212 -3.633843658165642E-003
                   213  2.231642146198008E-003
                   214  1.320919549145710E-004
                   215 -2.398901052051842E-004
                   216  4.276140710765733E-004
                   217 -2.422073022358832E-003
                   218  1.871219029840780E-003
                   219  1.470492777132140E-004
                   220  5.993670412253048E-005
                   221  4.427705993708989E-004
                   222  1.856971953519703E-003
                   223 -2.102265646531087E-003
                   224  1.495026069055414E-005
                   225 -2.260954813514708E-005
                   226  1.349645719380368E-004
                   227  2.518594634000806E-004
                   228  4.121346615416468E-004
                   229 -5.694536060818000E-005
                   230  4.895659109731016E-006
                   231 -1.003723175465036E-004
                   232  8.021789569626353E-004
                   233  2.371106506411616E-004
                   234  4.947216079301947E-006
                   235 -4.052244391034757E-006
                   236  4.346900931688164E-005
                   237  2.177369251821685E-004
                   238 -8.009932269901613E-004
                   239 -4.262617921671878E-005
                   240  4.239297708670835E-006
                   241 -2.548558688081131E-005
                   242 -3.435331624313339E-004
                   243  2.444162779899243E-004
                   244  3.091390815745488E-005
                   245  5.115712174654425E-006
                   246 -4.197996907222409E-006
 Sym= __2_A__
 Ene=  0.000000000000000E+000
 Spin= Alpha
 Occup=    2.00000000000000     
                     1 -5.610278791803890E-005
                     2  1.551966712478186E-004
                     3 -1.486236957798264E-003
                     4 -8.693544558562476E-006
                     5  1.017385063667881E-003
                     6  1.541519472700287E-003
                     7 -2.333309632720201E-004
                     8  1.433677462210759E-003
                     9 -1.608932335087004E-004
                    10  3.889595099002800E-005
                    11 -1.574292984917762E-004
                    12  1.458859444180092E-004
                    13  5.157309682739799E-005
                    14 -1.672480709751105E-004
                    15 -4.115427031990981E-005
                    16  3.302991958332078E-005
                    17  1.895844912047782E-006
                    18  4.994918111460440E-005
                    19 -2.582271788509282E-006
                    20  8.447415096436799E-005
                    21 -6.074773301179421E-005
                    22 -2.672280633932721E-005
                    23  8.935964641629879E-005
                    24 -8.588057230915719E-007
                    25 -3.374746121677751E-005
                    26  1.274102523247937E-004
                    27  9.603788996105181E-006
                    28 -6.184745302645459E-005
                    29 -1.040395322761885E-005
                    30  1.194009283385125E-004
                    31  4.370960841714218E-006
                    32   1.00083652846968     
                    33  8.408973299335964E-003
                    34  2.859639727987478E-003
                    35 -8.436687885261775E-003
                    36 -1.075617898116793E-003
                    37 -6.750592088023296E-005
                    38  1.219948532154464E-004
                    39  7.943150536534853E-004
                    40  5.881887977873837E-005
                    41 -4.961944278589398E-004
                    42  2.350703591038701E-003
                    43 -1.876119938787537E-005
                    44  4.836587356295571E-004
                    45  3.294228767438150E-004
                    46 -2.557792957803081E-005
                    47 -9.947355574208329E-005
                    48  2.976382330403986E-004
                    49  1.796357652268973E-005
                    50 -1.023546756270817E-003
                    51 -4.333808019460417E-004
                    52  2.106734054930788E-004
                    53 -1.240493486831259E-004
                    54  4.602516006001993E-005
                    55 -2.118350738661207E-005
                    56  2.519509063280464E-004
                    57  4.647340430692681E-006
                    58 -3.115663897886744E-005
                    59 -3.890903143760680E-005
                    60  6.412532152434128E-005
                    61  5.124027759481082E-007
                    62  1.623068803430443E-002
                    63 -1.246000141346117E-003
                    64 -2.883980173898057E-004
                    65  2.712723256115177E-003
                    66 -5.245477735953758E-004
                    67 -9.367071325929930E-005
                    68  5.037674951096084E-004
                    69  2.661172631881766E-005
                    70 -3.044483218545488E-005
                    71  2.534536727184657E-004
                    72  1.393117994501689E-004
                    73  2.227047802883162E-004
                    74 -1.777511285075572E-003
                    75  2.152550693312173E-005
                    76  2.585856373029519E-005
                    77  1.174513030205507E-006
                    78 -5.282490830770792E-005
                    79 -4.993150896825871E-006
                    80 -5.787959366956965E-004
                    81 -3.945997156593694E-004
                    82  1.241385654873464E-005
                    83  8.161386458195274E-004
                    84  8.861550297683091E-005
                    85  3.392907739259246E-005
                    86  1.060171077855275E-004
                    87  1.880516392331475E-005
                    88 -3.143813959598958E-005
                    89 -2.541377053587092E-005
                    90 -2.614548926842766E-005
                    91  6.777705879762120E-006
                    92  1.896026216871844E-002
                    93 -1.736562790780175E-003
                    94 -3.476401122026187E-004
                    95  3.433691376442948E-003
                    96 -2.989224665244675E-004
                    97  1.258947195724754E-005
                    98 -3.248455549145628E-004
                    99 -1.387200759016590E-004
                   100  8.963383055790879E-005
                   101 -8.326785678515630E-004
                   102  4.424839085269801E-004
                   103 -1.463874917294488E-004
                   104  1.471113809676386E-003
                   105  1.122103609856999E-005
                   106 -1.094760272658785E-006
                   107  1.245813428052803E-006
                   108 -2.181537097715644E-005
                   109 -4.024348551529848E-007
                   110 -1.339870590886338E-004
                   111  5.491781309248877E-004
                   112 -2.978896483748756E-005
                   113  6.124725337555616E-004
                   114 -3.182837919491589E-005
                   115 -4.430234146057773E-005
                   116  7.866731609048911E-005
                   117 -1.322945868086775E-005
                   118  1.606925501217910E-005
                   119 -1.671171446862167E-005
                   120 -2.774146436042787E-005
                   121 -3.271124105808704E-007
                   122 -3.611401472278807E-005
                   123 -7.829103454661213E-004
                   124  2.465719157482997E-004
                   125 -4.514473765152282E-004
                   126  4.488668796411136E-005
                   127  9.795096564856192E-006
                   128 -6.207153166678342E-005
                   129  6.201727116096546E-004
                   130  9.657782734321067E-006
                   131  5.896542824478288E-005
                   132  1.584808136592151E-004
                   133 -4.655518396136887E-005
                   134  4.245310696978229E-004
                   135  3.550433763449432E-006
                   136  3.419009317628687E-005
                   137  5.341751532003190E-006
                   138 -4.252491393780292E-005
                   139 -5.906568284054503E-006
                   140  1.842258645845550E-004
                   141 -3.148038318187729E-004
                   142 -2.063619745324729E-005
                   143 -2.148243594782762E-004
                   144  2.621523679894723E-005
                   145 -5.536341093014204E-006
                   146  1.050539937594200E-005
                   147 -1.509800668445296E-006
                   148  1.493962741772114E-006
                   149 -4.337384954780679E-006
                   150 -1.847975463785812E-005
                   151  1.290505639862572E-006
                   152  6.788796529654507E-005
                   153 -7.791428990762865E-004
                   154  2.277405370954405E-004
                   155 -1.192539860561005E-004
                   156 -4.784026038901503E-005
                   157 -3.939109041807899E-006
                   158  5.344098889159877E-005
                   159  4.687103993872046E-004
                   160  1.671306336144939E-005