[Molden Format]
[Atoms] AU
  N     1    7     0.0000000000   -0.0026137500   -4.2826359100        
  C     2    6     0.0000000000   -0.0012635800   -1.7760907300        
  C     3    6     0.0000000000   -2.3409421400   -0.4113046800        
  C     4    6     0.0000000000    2.3374825900   -0.4140630500        
  C     5    6     0.0000000000   -2.3004512000    2.1625773200        
  C     6    6     0.0000000000    2.3011467500    2.1600554200        
  C     7    6     0.0000000000    0.0010629300    3.4721001200        
  H     8    1     0.0000000000   -1.4382150400   -5.1945632600        
  H     9    1     0.0000000000    1.6676733400   -5.2637267000        
  H    10    1     0.0000000000   -4.0762005000   -1.4453189800        
  H    11    1     0.0000000000    4.0719014800   -1.4499919500        
  H    12    1     0.0000000000   -4.0409191100    3.1971833900        
  H    13    1     0.0000000000    4.0436639100    3.1917514400        
  H    14    1     0.0000000000    0.0020242500    5.4985506300        
[5D]
[7F]
[GTO]
  1  0
   s    12 1.00
  0.114200D+05  0.172695D-04
  0.171200D+04  0.134411D-03
  0.389300D+03  0.694561D-03
  0.110000D+03  0.278531D-02
  0.355700D+02  0.863457D-02
  0.125400D+02  0.199805D-01
  0.464400D+01  0.262908D-01
  0.129300D+01 -0.243845D-01
  0.511800D+00 -0.924934D-01
  0.178700D+00 -0.339683D+00
  0.246240D-01  0.345111D+00
  0.112530D-01  0.752750D+00
   s    10 1.00
  0.114200D+05  0.523000D-03
  0.171200D+04  0.404500D-02
  0.389300D+03  0.207750D-01
  0.110000D+03  0.807269D-01
  0.355700D+02  0.233074D+00
  0.125400D+02  0.433501D+00
  0.464400D+01  0.347472D+00
  0.129300D+01  0.412620D-01
  0.511800D+00 -0.850799D-02
  0.178700D+00  0.238400D-02
   s    10 1.00
  0.114200D+05 -0.115000D-03
  0.171200D+04 -0.895000D-03
  0.389300D+03 -0.462400D-02
  0.110000D+03 -0.185280D-01
  0.355700D+02 -0.573390D-01
  0.125400D+02 -0.132076D+00
  0.464400D+01 -0.172510D+00
  0.129300D+01  0.151814D+00
  0.511800D+00  0.599944D+00
  0.178700D+00  0.387462D+00
   s     1 1.00
  0.129300D+01  0.100000D+01
   s     1 1.00
  0.178700D+00  0.100000D+01
   p     5 1.00
  0.266300D+02  0.146700D-01
  0.594800D+01  0.917640D-01
  0.174200D+01  0.298683D+00
  0.555000D+00  0.498487D+00
  0.172500D+00  0.337023D+00
   p     1 1.00
  0.174200D+01  0.100000D+01
   p     1 1.00
  0.555000D+00  0.100000D+01
   d     1 1.00
  0.165400D+01  0.100000D+01
   d     1 1.00
  0.469000D+00  0.100000D+01
   f     1 1.00
  0.109300D+01  0.100000D+01
  
  2  0
   s    10 1.00
  0.823600D+04  0.531000D-03
  0.123500D+04  0.410800D-02
  0.280800D+03  0.210870D-01
  0.792700D+02  0.818530D-01
  0.255900D+02  0.234817D+00
  0.899700D+01  0.434401D+00
  0.331900D+01  0.346129D+00
  0.905900D+00  0.393780D-01
  0.364300D+00 -0.898300D-02
  0.128500D+00  0.238500D-02
   s    10 1.00
  0.823600D+04 -0.113000D-03
  0.123500D+04 -0.878000D-03
  0.280800D+03 -0.454000D-02
  0.792700D+02 -0.181330D-01
  0.255900D+02 -0.557600D-01
  0.899700D+01 -0.126895D+00
  0.331900D+01 -0.170352D+00
  0.905900D+00  0.140382D+00
  0.364300D+00  0.598684D+00
  0.128500D+00  0.395389D+00
   s     1 1.00
  0.905900D+00  0.100000D+01
   s     1 1.00
  0.364300D+00  0.100000D+01
   p     5 1.00
  0.187100D+02  0.140310D-01
  0.413300D+01  0.868660D-01
  0.120000D+01  0.290216D+00
  0.382700D+00  0.501008D+00
  0.120900D+00  0.343406D+00
   p     1 1.00
  0.382700D+00  0.100000D+01
   p     1 1.00
  0.120900D+00  0.100000D+01
   d     1 1.00
  0.109700D+01  0.100000D+01
   d     1 1.00
  0.318000D+00  0.100000D+01
   f     1 1.00
  0.761000D+00  0.100000D+01
  
  3  0
   s    10 1.00
  0.823600D+04  0.531000D-03
  0.123500D+04  0.410800D-02
  0.280800D+03  0.210870D-01
  0.792700D+02  0.818530D-01
  0.255900D+02  0.234817D+00
  0.899700D+01  0.434401D+00
  0.331900D+01  0.346129D+00
  0.905900D+00  0.393780D-01
  0.364300D+00 -0.898300D-02
  0.128500D+00  0.238500D-02
   s    10 1.00
  0.823600D+04 -0.113000D-03
  0.123500D+04 -0.878000D-03
  0.280800D+03 -0.454000D-02
  0.792700D+02 -0.181330D-01
  0.255900D+02 -0.557600D-01
  0.899700D+01 -0.126895D+00
  0.331900D+01 -0.170352D+00
  0.905900D+00  0.140382D+00
  0.364300D+00  0.598684D+00
  0.128500D+00  0.395389D+00
   s     1 1.00
  0.905900D+00  0.100000D+01
   s     1 1.00
  0.364300D+00  0.100000D+01
   p     5 1.00
  0.187100D+02  0.140310D-01
  0.413300D+01  0.868660D-01
  0.120000D+01  0.290216D+00
  0.382700D+00  0.501008D+00
  0.120900D+00  0.343406D+00
   p     1 1.00
  0.382700D+00  0.100000D+01
   p     1 1.00
  0.120900D+00  0.100000D+01
   d     1 1.00
  0.109700D+01  0.100000D+01
   d     1 1.00
  0.318000D+00  0.100000D+01
   f     1 1.00
  0.761000D+00  0.100000D+01
  
  4  0
   s    10 1.00
  0.823600D+04  0.531000D-03
  0.123500D+04  0.410800D-02
  0.280800D+03  0.210870D-01
  0.792700D+02  0.818530D-01
  0.255900D+02  0.234817D+00
  0.899700D+01  0.434401D+00
  0.331900D+01  0.346129D+00
  0.905900D+00  0.393780D-01
  0.364300D+00 -0.898300D-02
  0.128500D+00  0.238500D-02
   s    10 1.00
  0.823600D+04 -0.113000D-03
  0.123500D+04 -0.878000D-03
  0.280800D+03 -0.454000D-02
  0.792700D+02 -0.181330D-01
  0.255900D+02 -0.557600D-01
  0.899700D+01 -0.126895D+00
  0.331900D+01 -0.170352D+00
  0.905900D+00  0.140382D+00
  0.364300D+00  0.598684D+00
  0.128500D+00  0.395389D+00
   s     1 1.00
  0.905900D+00  0.100000D+01
   s     1 1.00
  0.364300D+00  0.100000D+01
   p     5 1.00
  0.187100D+02  0.140310D-01
  0.413300D+01  0.868660D-01
  0.120000D+01  0.290216D+00
  0.382700D+00  0.501008D+00
  0.120900D+00  0.343406D+00
   p     1 1.00
  0.382700D+00  0.100000D+01
   p     1 1.00
  0.120900D+00  0.100000D+01
   d     1 1.00
  0.109700D+01  0.100000D+01
   d     1 1.00
  0.318000D+00  0.100000D+01
   f     1 1.00
  0.761000D+00  0.100000D+01
  
  5  0
   s    10 1.00
  0.823600D+04  0.531000D-03
  0.123500D+04  0.410800D-02
  0.280800D+03  0.210870D-01
  0.792700D+02  0.818530D-01
  0.255900D+02  0.234817D+00
  0.899700D+01  0.434401D+00
  0.331900D+01  0.346129D+00
  0.905900D+00  0.393780D-01
  0.364300D+00 -0.898300D-02
  0.128500D+00  0.238500D-02
   s    10 1.00
  0.823600D+04 -0.113000D-03
  0.123500D+04 -0.878000D-03
  0.280800D+03 -0.454000D-02
  0.792700D+02 -0.181330D-01
  0.255900D+02 -0.557600D-01
  0.899700D+01 -0.126895D+00
  0.331900D+01 -0.170352D+00
  0.905900D+00  0.140382D+00
  0.364300D+00  0.598684D+00
  0.128500D+00  0.395389D+00
   s     1 1.00
  0.905900D+00  0.100000D+01
   s     1 1.00
  0.364300D+00  0.100000D+01
   p     5 1.00
  0.187100D+02  0.140310D-01
  0.413300D+01  0.868660D-01
  0.120000D+01  0.290216D+00
  0.382700D+00  0.501008D+00
  0.120900D+00  0.343406D+00
   p     1 1.00
  0.382700D+00  0.100000D+01
   p     1 1.00
  0.120900D+00  0.100000D+01
   d     1 1.00
  0.109700D+01  0.100000D+01
   d     1 1.00
  0.318000D+00  0.100000D+01
   f     1 1.00
  0.761000D+00  0.100000D+01
  
  6  0
   s    10 1.00
  0.823600D+04  0.531000D-03
  0.123500D+04  0.410800D-02
  0.280800D+03  0.210870D-01
  0.792700D+02  0.818530D-01
  0.255900D+02  0.234817D+00
  0.899700D+01  0.434401D+00
  0.331900D+01  0.346129D+00
  0.905900D+00  0.393780D-01
  0.364300D+00 -0.898300D-02
  0.128500D+00  0.238500D-02
   s    10 1.00
  0.823600D+04 -0.113000D-03
  0.123500D+04 -0.878000D-03
  0.280800D+03 -0.454000D-02
  0.792700D+02 -0.181330D-01
  0.255900D+02 -0.557600D-01
  0.899700D+01 -0.126895D+00
  0.331900D+01 -0.170352D+00
  0.905900D+00  0.140382D+00
  0.364300D+00  0.598684D+00
  0.128500D+00  0.395389D+00
   s     1 1.00
  0.905900D+00  0.100000D+01
   s     1 1.00
  0.364300D+00  0.100000D+01
   p     5 1.00
  0.187100D+02  0.140310D-01
  0.413300D+01  0.868660D-01
  0.120000D+01  0.290216D+00
  0.382700D+00  0.501008D+00
  0.120900D+00  0.343406D+00
   p     1 1.00
  0.382700D+00  0.100000D+01
   p     1 1.00
  0.120900D+00  0.100000D+01
   d     1 1.00
  0.109700D+01  0.100000D+01
   d     1 1.00
  0.318000D+00  0.100000D+01
   f     1 1.00
  0.761000D+00  0.100000D+01
  
  7  0
   s    10 1.00
  0.823600D+04  0.531000D-03
  0.123500D+04  0.410800D-02
  0.280800D+03  0.210870D-01
  0.792700D+02  0.818530D-01
  0.255900D+02  0.234817D+00
  0.899700D+01  0.434401D+00
  0.331900D+01  0.346129D+00
  0.905900D+00  0.393780D-01
  0.364300D+00 -0.898300D-02
  0.128500D+00  0.238500D-02
   s    10 1.00
  0.823600D+04 -0.113000D-03
  0.123500D+04 -0.878000D-03
  0.280800D+03 -0.454000D-02
  0.792700D+02 -0.181330D-01
  0.255900D+02 -0.557600D-01
  0.899700D+01 -0.126895D+00
  0.331900D+01 -0.170352D+00
  0.905900D+00  0.140382D+00
  0.364300D+00  0.598684D+00
  0.128500D+00  0.395389D+00
   s     1 1.00
  0.905900D+00  0.100000D+01
   s     1 1.00
  0.364300D+00  0.100000D+01
   p     5 1.00
  0.187100D+02  0.140310D-01
  0.413300D+01  0.868660D-01
  0.120000D+01  0.290216D+00
  0.382700D+00  0.501008D+00
  0.120900D+00  0.343406D+00
   p     1 1.00
  0.382700D+00  0.100000D+01
   p     1 1.00
  0.120900D+00  0.100000D+01
   d     1 1.00
  0.109700D+01  0.100000D+01
   d     1 1.00
  0.318000D+00  0.100000D+01
   f     1 1.00
  0.761000D+00  0.100000D+01
  
  8  0
   s     4 1.00
  0.130100D+02  0.196850D-01
  0.196200D+01  0.137977D+00
  0.444600D+00  0.478148D+00
  0.122000D+00  0.501240D+00
   s     1 1.00
  0.122000D+00  0.100000D+01
   p     1 1.00
  0.727000D+00  0.100000D+01
  
  9  0
   s     4 1.00
  0.130100D+02  0.196850D-01
  0.196200D+01  0.137977D+00
  0.444600D+00  0.478148D+00
  0.122000D+00  0.501240D+00
   s     1 1.00
  0.122000D+00  0.100000D+01
   p     1 1.00
  0.727000D+00  0.100000D+01
  
 10  0
   s     4 1.00
  0.130100D+02  0.196850D-01
  0.196200D+01  0.137977D+00
  0.444600D+00  0.478148D+00
  0.122000D+00  0.501240D+00
   s     1 1.00
  0.122000D+00  0.100000D+01
   p     1 1.00
  0.727000D+00  0.100000D+01
  
 11  0
   s     4 1.00
  0.130100D+02  0.196850D-01
  0.196200D+01  0.137977D+00
  0.444600D+00  0.478148D+00
  0.122000D+00  0.501240D+00
   s     1 1.00
  0.122000D+00  0.100000D+01
   p     1 1.00
  0.727000D+00  0.100000D+01
  
 12  0
   s     4 1.00
  0.130100D+02  0.196850D-01
  0.196200D+01  0.137977D+00
  0.444600D+00  0.478148D+00
  0.122000D+00  0.501240D+00
   s     1 1.00
  0.122000D+00  0.100000D+01
   p     1 1.00
  0.727000D+00  0.100000D+01
  
 13  0
   s     4 1.00
  0.130100D+02  0.196850D-01
  0.196200D+01  0.137977D+00
  0.444600D+00  0.478148D+00
  0.122000D+00  0.501240D+00
   s     1 1.00
  0.122000D+00  0.100000D+01
   p     1 1.00
  0.727000D+00  0.100000D+01
  
 14  0
   s     4 1.00
  0.130100D+02  0.196850D-01
  0.196200D+01  0.137977D+00
  0.444600D+00  0.478148D+00
  0.122000D+00  0.501240D+00
   s     1 1.00
  0.122000D+00  0.100000D+01
   p     1 1.00
  0.727000D+00  0.100000D+01
  
[MO]
 Sym= __1_A__
 Ene=   1.00000000000000     
 Spin= Alpha
 Occup=    1.00000000000000     
                     1  5.713517214625512E-005
                     2  0.997846966039237     
                     3  1.084027973316201E-002
                     4  2.263571288605405E-003
                     5  9.206020635829243E-004
                     6 -1.282306221454733E-011
                     7 -2.252661649779535E-004
                     8  4.362851123753400E-003
                     9  6.950800153917754E-012
                    10 -1.827400440807950E-004
                    11 -1.781355960967430E-004
                    12  5.472845124468237E-012
                    13 -2.039306081507213E-004
                    14 -6.166786691804177E-005
                    15  2.682868580765447E-004
                    16 -1.392319829300970E-012
                    17  1.375544347874522E-004
                    18 -2.406586435588874E-004
                    19 -7.847660779980910E-013
                    20  1.947635796481810E-004
                    21  8.680088130272504E-013
                    22  7.788815147986286E-005
                    23  5.454710378403896E-004
                    24 -1.778706601579287E-014
                    25 -2.643748099326496E-004
                    26  1.897280278937189E-012
                    27 -3.462023988256703E-005
                    28  1.968052137574578E-004
                    29 -7.977892944246801E-013
                    30  6.855344819431900E-013
                    31  6.064727589248226E-005
                    32 -3.950745862756641E-004
                    33  2.867677908999622E-003
                    34  1.732221814245267E-004
                    35 -2.943363028829821E-004
                    36  4.703036626106653E-012
                    37  6.669578424329492E-005
                    38 -7.541857119432762E-003
                    39 -4.721153341803385E-012
                    40  6.641532719374992E-006
                    41  4.529339426591556E-004
                    42  4.536706795675888E-012
                    43  1.267957755060443E-004
                    44  4.169216974880720E-003
                    45  3.579723818647345E-004
                    46  7.067044475685277E-013
                    47  1.332323994349050E-005
                    48  1.448350805697824E-004
                    49  4.948394761524263E-013
                    50 -7.144953727504421E-007
                    51 -2.876716951384462E-012
                    52 -2.303031275910905E-005
                    53 -4.851662120091590E-004
                    54  1.439843128553121E-012
                    55 -1.323648964744059E-004
                    56  4.341778654047449E-013
                    57  3.075459571841792E-006
                    58  9.745097102398803E-005
                    59 -2.182344409651455E-013
                    60  1.333054483414631E-012
                    61 -3.805752819481283E-006
                    62 -2.208672709708253E-004
                    63 -1.846467069692579E-003
                    64  5.788685363983667E-005
                    65  5.840086408416732E-004
                    66  2.762694586246793E-012
                    67 -9.268041555798750E-004
                    68  1.155321327885313E-003
                    69  3.845975454467384E-012
                    70 -3.638688750009749E-005
                    71  6.364449225592238E-004
                    72  6.227233029264702E-013
                    73 -3.730557297491819E-004
                    74 -2.090241281883398E-004
                    75  9.707844197024729E-005
                    76 -1.732088736477904E-012
                    77 -1.109049689092138E-005
                    78  4.414945125552770E-005
                    79 -1.101484593481960E-012
                    80 -3.192010937864364E-005
                    81  9.211080005247814E-012
                    82  2.376156550271967E-004
                    83 -4.427259288191650E-005
                    84  3.161328582345445E-012
                    85 -9.673343611277947E-005
                    86  3.536333596130859E-012
                    87 -3.214369305913637E-005
                    88  2.336884195568870E-005
                    89  2.019274421607434E-013
                    90  6.118966356611254E-013
                    91  1.035665038434820E-005
                    92 -1.974902723645306E-004
                    93 -1.653665985802172E-003
                    94  6.362027997686230E-005
                    95  5.299052810516805E-004
                    96  1.471407509193033E-012
                    97  8.372439938672594E-004
                    98  1.052155709426292E-003
                    99 -1.734661471134536E-012
                   100  2.333346274387435E-005
                   101  5.965625265301678E-004
                   102 -7.077551446142464E-012
                   103  5.399278011678716E-004
                   104  1.094541410567626E-004
                   105  9.827660357316705E-005
                   106  2.348330075077632E-012
                   107  1.608020585941185E-005
                   108  4.078158842780584E-005
                   109 -2.955113278456468E-012
                   110 -8.504049508932114E-005
                   111 -4.694039566117042E-012
                   112 -2.598760989770209E-004
                   113 -4.553380751260432E-005
                   114 -1.257136463166009E-014
                   115 -9.644953722497216E-005
                   116 -2.859607501143682E-012
                   117  3.324247730397146E-005
                   118  2.045336261858480E-005
                   119  1.512466814561886E-012
                   120 -8.056108690531718E-014
                   121 -1.386268786772105E-005
                   122 -1.476880828351788E-004
                   123  5.983840332467590E-005
                   124  1.200189955857609E-004
                   125  8.779447006882491E-005
                   126 -2.610258116919932E-012
                   127  5.052345665646748E-005
                   128 -8.748564673933328E-004
                   129 -1.995492212731140E-013
                   130 -4.674372375751456E-006
                   131  3.606951598545351E-004
                   132 -5.182520781371638E-012
                   133 -2.284130691642750E-004
                   134  5.328457918177814E-004
                   135 -1.853063504622234E-005
                   136 -5.678159731376617E-013
                   137  2.906436663384349E-006
                   138  2.503339078440318E-006
                   139  8.761256936776930E-013
                   140 -1.776178963230268E-004
                   141  8.364530519225996E-012
                   142  1.712342221146691E-004
                   143  1.756026749838677E-005
                   144 -5.634934196391172E-013
                   145 -3.985001526844372E-005
                   146 -3.692514529746249E-012
                   147  2.056105043865663E-006
                   148 -8.607457364293422E-006
                   149 -1.138584934767559E-013
                   150  2.116933775843476E-012
                   151 -2.662818376819825E-006
                   152 -1.507427436791374E-004
                   153  1.475451809030981E-005
                   154  1.030143428415866E-004
                   155  1.777022817627062E-004
                   156 -4.516310524790743E-012
                   157 -4.436850792866860E-005
                   158 -8.298065944718856E-004
                   159  1.040982554251586E-011
                   160 -1.814239579422250E-006
                   161  3.244670338874025E-004
                   162  3.397831036576724E-012
                   163  7.494207254965456E-005
                   164  8.149932256205942E-004
                   165 -1.532399160814521E-005
                   166 -4.701918273733297E-013
                   167 -6.694920237719076E-007
                   168  2.440570533265142E-006
                   169 -6.347313291735308E-013
                   170 -1.781064010727629E-004
                   171 -4.498793826545451E-012
                   172 -1.908592530692530E-004
                   173  5.959937963004342E-006
                   174  1.973807838968293E-012
                   175 -3.797045350705429E-005
                   176 -2.577437063327032E-012
                   177  2.687347813280867E-007
                   178 -1.016535092120977E-005
                   179  2.793354020372865E-012
                   180 -6.724948162153380E-013
                   181  4.001544408124704E-006
                   182 -1.259194505585621E-004
                   183 -3.385648094678248E-004
                   184  3.071888926110214E-005
                   185  1.566789661865395E-004
                   186 -4.694679929788686E-012
                   187 -1.434757627388747E-006
                   188 -3.887505635823313E-005
                   189  1.306409955812049E-012
                   190 -1.454362274341462E-005
                   191  8.352900593790207E-006
                   192  3.897579479985065E-012
                   193 -1.657633833803815E-004
                   194  9.482865458229568E-005
                   195  2.019558826623403E-005
                   196  9.398612534670832E-013
                   197  1.033003684442063E-006
                   198  9.690751403888011E-006
                   199 -2.084455688151488E-012
                   200  6.146008700501792E-005
                   201  8.500655731330073E-013
                   202  1.243750546454925E-005
                   203  4.581694177864650E-005
                   204  5.802310750680824E-012
                   205 -1.328541384152030E-005
                   206  2.218058157800846E-012
                   207 -1.905060640696901E-006
                   208  5.363002440059874E-006
                   209 -4.650421192337392E-012
                   210  1.055778669827379E-012
                   211  3.291357718682286E-007
                   212  5.192134165625344E-003
                   213 -3.131586628482350E-003
                   214  1.142823702828070E-012
                   215  3.525971050299421E-004
                   216  3.405192859009973E-004
                   217  4.154462099141244E-003
                   218 -2.447376801948060E-003
                   219  6.774820347165813E-013
                   220 -5.080941864975261E-004
                   221  3.787936715147597E-004
                   222 -7.476620708751506E-004
                   223  4.327712581835298E-006
                   224  1.265066257078879E-012
                   225 -2.283484172181773E-005
                   226 -4.628403816119748E-005
                   227 -7.338175165797159E-004
                   228 -3.830412897357051E-005
                   229 -2.529974378634096E-013
                   230  1.894266956044871E-005
                   231 -5.731640986769797E-005
                   232 -2.611895112388049E-004
                   233 -3.812994776602243E-004
                   234  6.536265324303414E-013
                   235 -6.560716296250476E-006
                   236  7.571062513510797E-006
                   237 -2.386143205795746E-004
                   238 -3.924426408724446E-004
                   239 -1.762821549888293E-013
                   240  7.743019680292811E-006
                   241  8.173243136332730E-006
                   242  7.464782833632033E-005
                   243 -1.454849811526039E-004
                   244 -2.730413456514130E-012
                   245  9.705506126771584E-007
                   246  1.388147672418574E-005
 Sym= __2_A__
 Ene=   2.00000000000000     
 Spin= Alpha
 Occup=    1.00000000000000     
                     1 -4.336403367126503E-005
                     2 -2.147627426026013E-004
                     3  2.102559755257159E-003
                     4  1.041040538541283E-004
                     5  1.343635144498912E-003
                     6 -1.981241819732453E-011
                     7  6.646967633872857E-005
                     8  3.032555455465974E-003
                     9  4.725755063106735E-012
                    10  3.730182269322270E-006
                    11 -4.762823802560648E-005
                    12  6.008523619271284E-012
                    13 -2.235511690828022E-005
                    14 -5.510625276740390E-004
                    15  3.807320124708666E-005
                    16 -1.101585729134116E-012
                    17  3.850115463196708E-006
                    18  6.495536545310452E-005
                    19  1.227582562042177E-012
                    20 -3.345130897358774E-004
                    21 -4.145555783669694E-012
                    22 -5.737237816673725E-005
                    23 -3.687189092418880E-004
                    24  9.777342749034963E-013
                    25  1.747460085653115E-004
                    26 -1.436721475062803E-012
                    27  1.293970162468012E-005
                    28 -2.058482887609378E-006
                    29  1.701644321737075E-012
                    30 -1.101852670962130E-012
                    31  1.560241416671371E-006
                    32   1.00105162795018     
                    33  9.298075721763856E-003
                    34  2.662361825473316E-003
                    35 -7.769375141862376E-003
                    36 -1.842644181575381E-012
                    37  8.177365543226715E-006
                    38 -4.118971228913773E-003
                    39  5.732302417775406E-012
                    40 -7.900571895746753E-006
                    41  9.816184343578354E-004
                    42  1.009840713805437E-011
                    43 -5.323079323531771E-005
                    44  4.532856674837683E-003
                    45  4.820937754329269E-004
                    46 -1.187146595422061E-012
                    47  4.662161654445068E-006
                    48 -4.348192162522664E-004
                    49  2.826826287109825E-012
                    50  6.047686460632688E-004
                    51 -5.706957151613876E-012
                    52 -5.830268480016979E-005
                    53  9.601931779493818E-004
                    54 -3.192800858851818E-012
                    55  3.914748768743945E-004
                    56  1.412054584014388E-012
                    57  4.544935650472409E-007
                    58 -2.100709718707682E-004
                    59 -5.184785758025900E-013
                    60  4.400331720359129E-012
                    61 -1.080283834263857E-007
                    62  7.210379836657515E-003
                    63 -2.071796076616034E-003
                    64 -2.750220409640381E-004
                    65  3.045842189283765E-003
                    66  9.683833323005914E-012
                    67  1.051007126797495E-004
                    68 -1.957020828996259E-005
                    69 -4.369876183750455E-012
                    70  5.855218598905819E-004
                    71  1.082852995061055E-005
                    72 -1.803425733694326E-011
                    73 -2.157175249466823E-003
                    74  1.138179298206553E-004
                    75 -1.608803256628165E-005
                    76 -1.380194475887770E-012
                    77  1.485428532498154E-005
                    78  2.867136822182976E-005
                    79 -2.287020075678141E-012
                    80  7.839228250267502E-004
                    81 -6.101844137740130E-013
                    82 -4.336941998652419E-004
                    83 -1.413485413479307E-006
                    84 -2.700801964213098E-013
                    85  7.539427084638322E-005
                    86 -2.523093748988623E-012
                    87  4.967069115050551E-005
                    88 -1.275076477698101E-004
                    89  6.994230949408424E-013
                    90  6.030804897289642E-013
                    91  5.027586980143423E-005
                    92  7.248289180145149E-003
                    93 -2.064035033423895E-003
                    94 -2.834352196171668E-004
                    95  3.101608279785330E-003
                    96  3.541255951754859E-012
                    97 -1.021510249681613E-004
                    98 -2.484152055711917E-005
                    99 -4.728531136473091E-012
                   100 -6.311772080794827E-004
                   101  1.245758311808744E-005
                   102  2.098895978249147E-012
                   103  2.113823780207393E-003
                   104  4.249973118116385E-005
                   105 -1.455473815267721E-005
                   106  1.013109797795336E-012
                   107 -1.264720067741727E-005
                   108  2.793261323006628E-005
                   109  2.961924702332314E-013
                   110  7.578160301062273E-004
                   111  1.935866292481310E-012
                   112  4.311245534301475E-004
                   113 -1.562580028087161E-005
                   114  6.508351230927503E-013
                   115  7.231756709752862E-005
                   116 -2.703737175140199E-012
                   117 -4.685632405920339E-005
                   118 -1.273773345356300E-004
                   119 -1.161036385261157E-012
                   120 -4.055569586388161E-013
                   121 -5.112642020668266E-005
                   122 -2.375153850880623E-004
                   123 -7.731464984884875E-004
                   124  2.229919320051019E-004
                   125 -9.889397753548332E-005
                   126 -6.011617954729130E-012
                   127 -2.108147989558269E-005
                   128 -2.449616481194258E-004
                   129  2.474930637287651E-012
                   130  1.011762676041523E-006
                   131  5.390054689465874E-004
                   132  2.638521400771027E-011
                   133  3.446290204233640E-004
                   134  7.985539355530701E-004
                   135 -1.328515765646727E-005
                   136 -1.145840146564425E-012
                   137  5.218040615527504E-005
                   138  1.355446285816572E-005
                   139  3.944171042073152E-012
                   140 -2.932793121390656E-004
                   141  5.328469787777630E-014
                   142 -2.210257239899677E-004
                   143 -1.452100017437124E-005
                   144  9.532393342093751E-013
                   145  2.053829717494929E-006
                   146  3.060792748877911E-012
                   147 -4.190056940120084E-005
                   148 -4.002633617958648E-005
                   149  3.270649566864210E-012
                   150 -5.367953395261828E-013
                   151 -5.815845086399554E-006
                   152 -2.342590387010786E-004
                   153 -7.602623721455767E-004
                   154  2.258318360344080E-004
                   155 -1.106501759309880E-004
                   156 -4.014524608851537E-012
                   157  1.783029030884692E-005
                   158 -2.467601099746067E-004
                   159  9.235778673412284E-012
                   160  1.409642677313745E-005