[Molden Format]
[Atoms] AU
  N     1    7     0.0000000000   -0.0026137500   -4.2826359100        
  C     2    6     0.0000000000   -0.0012635800   -1.7760907300        
  C     3    6     0.0000000000   -2.3409421400   -0.4113046800        
  C     4    6     0.0000000000    2.3374825900   -0.4140630500        
  C     5    6     0.0000000000   -2.3004512000    2.1625773200        
  C     6    6     0.0000000000    2.3011467500    2.1600554200        
  C     7    6     0.0000000000    0.0010629300    3.4721001200        
  H     8    1     0.0000000000   -1.4382150400   -5.1945632600        
  H     9    1     0.0000000000    1.6676733400   -5.2637267000        
  H    10    1     0.0000000000   -4.0762005000   -1.4453189800        
  H    11    1     0.0000000000    4.0719014800   -1.4499919500        
  H    12    1     0.0000000000   -4.0409191100    3.1971833900        
  H    13    1     0.0000000000    4.0436639100    3.1917514400        
  H    14    1     0.0000000000    0.0020242500    5.4985506300        
[5D]
[7F]
[GTO]
  1  0
   s    12 1.00
  0.114200D+05  0.172695D-04
  0.171200D+04  0.134411D-03
  0.389300D+03  0.694561D-03
  0.110000D+03  0.278531D-02
  0.355700D+02  0.863457D-02
  0.125400D+02  0.199805D-01
  0.464400D+01  0.262908D-01
  0.129300D+01 -0.243845D-01
  0.511800D+00 -0.924934D-01
  0.178700D+00 -0.339683D+00
  0.246240D-01  0.345111D+00
  0.112530D-01  0.752750D+00
   s    10 1.00
  0.114200D+05  0.523000D-03
  0.171200D+04  0.404500D-02
  0.389300D+03  0.207750D-01
  0.110000D+03  0.807269D-01
  0.355700D+02  0.233074D+00
  0.125400D+02  0.433501D+00
  0.464400D+01  0.347472D+00
  0.129300D+01  0.412620D-01
  0.511800D+00 -0.850799D-02
  0.178700D+00  0.238400D-02
   s    10 1.00
  0.114200D+05 -0.115000D-03
  0.171200D+04 -0.895000D-03
  0.389300D+03 -0.462400D-02
  0.110000D+03 -0.185280D-01
  0.355700D+02 -0.573390D-01
  0.125400D+02 -0.132076D+00
  0.464400D+01 -0.172510D+00
  0.129300D+01  0.151814D+00
  0.511800D+00  0.599944D+00
  0.178700D+00  0.387462D+00
   s     1 1.00
  0.129300D+01  0.100000D+01
   s     1 1.00
  0.178700D+00  0.100000D+01
   p     5 1.00
  0.266300D+02  0.146700D-01
  0.594800D+01  0.917640D-01
  0.174200D+01  0.298683D+00
  0.555000D+00  0.498487D+00
  0.172500D+00  0.337023D+00
   p     1 1.00
  0.174200D+01  0.100000D+01
   p     1 1.00
  0.555000D+00  0.100000D+01
   d     1 1.00
  0.165400D+01  0.100000D+01
   d     1 1.00
  0.469000D+00  0.100000D+01
   f     1 1.00
  0.109300D+01  0.100000D+01
  
  2  0
   s    10 1.00
  0.823600D+04  0.531000D-03
  0.123500D+04  0.410800D-02
  0.280800D+03  0.210870D-01
  0.792700D+02  0.818530D-01
  0.255900D+02  0.234817D+00
  0.899700D+01  0.434401D+00
  0.331900D+01  0.346129D+00
  0.905900D+00  0.393780D-01
  0.364300D+00 -0.898300D-02
  0.128500D+00  0.238500D-02
   s    10 1.00
  0.823600D+04 -0.113000D-03
  0.123500D+04 -0.878000D-03
  0.280800D+03 -0.454000D-02
  0.792700D+02 -0.181330D-01
  0.255900D+02 -0.557600D-01
  0.899700D+01 -0.126895D+00
  0.331900D+01 -0.170352D+00
  0.905900D+00  0.140382D+00
  0.364300D+00  0.598684D+00
  0.128500D+00  0.395389D+00
   s     1 1.00
  0.905900D+00  0.100000D+01
   s     1 1.00
  0.364300D+00  0.100000D+01
   p     5 1.00
  0.187100D+02  0.140310D-01
  0.413300D+01  0.868660D-01
  0.120000D+01  0.290216D+00
  0.382700D+00  0.501008D+00
  0.120900D+00  0.343406D+00
   p     1 1.00
  0.382700D+00  0.100000D+01
   p     1 1.00
  0.120900D+00  0.100000D+01
   d     1 1.00
  0.109700D+01  0.100000D+01
   d     1 1.00
  0.318000D+00  0.100000D+01
   f     1 1.00
  0.761000D+00  0.100000D+01
  
  3  0
   s    10 1.00
  0.823600D+04  0.531000D-03
  0.123500D+04  0.410800D-02
  0.280800D+03  0.210870D-01
  0.792700D+02  0.818530D-01
  0.255900D+02  0.234817D+00
  0.899700D+01  0.434401D+00
  0.331900D+01  0.346129D+00
  0.905900D+00  0.393780D-01
  0.364300D+00 -0.898300D-02
  0.128500D+00  0.238500D-02
   s    10 1.00
  0.823600D+04 -0.113000D-03
  0.123500D+04 -0.878000D-03
  0.280800D+03 -0.454000D-02
  0.792700D+02 -0.181330D-01
  0.255900D+02 -0.557600D-01
  0.899700D+01 -0.126895D+00
  0.331900D+01 -0.170352D+00
  0.905900D+00  0.140382D+00
  0.364300D+00  0.598684D+00
  0.128500D+00  0.395389D+00
   s     1 1.00
  0.905900D+00  0.100000D+01
   s     1 1.00
  0.364300D+00  0.100000D+01
   p     5 1.00
  0.187100D+02  0.140310D-01
  0.413300D+01  0.868660D-01
  0.120000D+01  0.290216D+00
  0.382700D+00  0.501008D+00
  0.120900D+00  0.343406D+00
   p     1 1.00
  0.382700D+00  0.100000D+01
   p     1 1.00
  0.120900D+00  0.100000D+01
   d     1 1.00
  0.109700D+01  0.100000D+01
   d     1 1.00
  0.318000D+00  0.100000D+01
   f     1 1.00
  0.761000D+00  0.100000D+01
  
  4  0
   s    10 1.00
  0.823600D+04  0.531000D-03
  0.123500D+04  0.410800D-02
  0.280800D+03  0.210870D-01
  0.792700D+02  0.818530D-01
  0.255900D+02  0.234817D+00
  0.899700D+01  0.434401D+00
  0.331900D+01  0.346129D+00
  0.905900D+00  0.393780D-01
  0.364300D+00 -0.898300D-02
  0.128500D+00  0.238500D-02
   s    10 1.00
  0.823600D+04 -0.113000D-03
  0.123500D+04 -0.878000D-03
  0.280800D+03 -0.454000D-02
  0.792700D+02 -0.181330D-01
  0.255900D+02 -0.557600D-01
  0.899700D+01 -0.126895D+00
  0.331900D+01 -0.170352D+00
  0.905900D+00  0.140382D+00
  0.364300D+00  0.598684D+00
  0.128500D+00  0.395389D+00
   s     1 1.00
  0.905900D+00  0.100000D+01
   s     1 1.00
  0.364300D+00  0.100000D+01
   p     5 1.00
  0.187100D+02  0.140310D-01
  0.413300D+01  0.868660D-01
  0.120000D+01  0.290216D+00
  0.382700D+00  0.501008D+00
  0.120900D+00  0.343406D+00
   p     1 1.00
  0.382700D+00  0.100000D+01
   p     1 1.00
  0.120900D+00  0.100000D+01
   d     1 1.00
  0.109700D+01  0.100000D+01
   d     1 1.00
  0.318000D+00  0.100000D+01
   f     1 1.00
  0.761000D+00  0.100000D+01
  
  5  0
   s    10 1.00
  0.823600D+04  0.531000D-03
  0.123500D+04  0.410800D-02
  0.280800D+03  0.210870D-01
  0.792700D+02  0.818530D-01
  0.255900D+02  0.234817D+00
  0.899700D+01  0.434401D+00
  0.331900D+01  0.346129D+00
  0.905900D+00  0.393780D-01
  0.364300D+00 -0.898300D-02
  0.128500D+00  0.238500D-02
   s    10 1.00
  0.823600D+04 -0.113000D-03
  0.123500D+04 -0.878000D-03
  0.280800D+03 -0.454000D-02
  0.792700D+02 -0.181330D-01
  0.255900D+02 -0.557600D-01
  0.899700D+01 -0.126895D+00
  0.331900D+01 -0.170352D+00
  0.905900D+00  0.140382D+00
  0.364300D+00  0.598684D+00
  0.128500D+00  0.395389D+00
   s     1 1.00
  0.905900D+00  0.100000D+01
   s     1 1.00
  0.364300D+00  0.100000D+01
   p     5 1.00
  0.187100D+02  0.140310D-01
  0.413300D+01  0.868660D-01
  0.120000D+01  0.290216D+00
  0.382700D+00  0.501008D+00
  0.120900D+00  0.343406D+00
   p     1 1.00
  0.382700D+00  0.100000D+01
   p     1 1.00
  0.120900D+00  0.100000D+01
   d     1 1.00
  0.109700D+01  0.100000D+01
   d     1 1.00
  0.318000D+00  0.100000D+01
   f     1 1.00
  0.761000D+00  0.100000D+01
  
  6  0
   s    10 1.00
  0.823600D+04  0.531000D-03
  0.123500D+04  0.410800D-02
  0.280800D+03  0.210870D-01
  0.792700D+02  0.818530D-01
  0.255900D+02  0.234817D+00
  0.899700D+01  0.434401D+00
  0.331900D+01  0.346129D+00
  0.905900D+00  0.393780D-01
  0.364300D+00 -0.898300D-02
  0.128500D+00  0.238500D-02
   s    10 1.00
  0.823600D+04 -0.113000D-03
  0.123500D+04 -0.878000D-03
  0.280800D+03 -0.454000D-02
  0.792700D+02 -0.181330D-01
  0.255900D+02 -0.557600D-01
  0.899700D+01 -0.126895D+00
  0.331900D+01 -0.170352D+00
  0.905900D+00  0.140382D+00
  0.364300D+00  0.598684D+00
  0.128500D+00  0.395389D+00
   s     1 1.00
  0.905900D+00  0.100000D+01
   s     1 1.00
  0.364300D+00  0.100000D+01
   p     5 1.00
  0.187100D+02  0.140310D-01
  0.413300D+01  0.868660D-01
  0.120000D+01  0.290216D+00
  0.382700D+00  0.501008D+00
  0.120900D+00  0.343406D+00
   p     1 1.00
  0.382700D+00  0.100000D+01
   p     1 1.00
  0.120900D+00  0.100000D+01
   d     1 1.00
  0.109700D+01  0.100000D+01
   d     1 1.00
  0.318000D+00  0.100000D+01
   f     1 1.00
  0.761000D+00  0.100000D+01
  
  7  0
   s    10 1.00
  0.823600D+04  0.531000D-03
  0.123500D+04  0.410800D-02
  0.280800D+03  0.210870D-01
  0.792700D+02  0.818530D-01
  0.255900D+02  0.234817D+00
  0.899700D+01  0.434401D+00
  0.331900D+01  0.346129D+00
  0.905900D+00  0.393780D-01
  0.364300D+00 -0.898300D-02
  0.128500D+00  0.238500D-02
   s    10 1.00
  0.823600D+04 -0.113000D-03
  0.123500D+04 -0.878000D-03
  0.280800D+03 -0.454000D-02
  0.792700D+02 -0.181330D-01
  0.255900D+02 -0.557600D-01
  0.899700D+01 -0.126895D+00
  0.331900D+01 -0.170352D+00
  0.905900D+00  0.140382D+00
  0.364300D+00  0.598684D+00
  0.128500D+00  0.395389D+00
   s     1 1.00
  0.905900D+00  0.100000D+01
   s     1 1.00
  0.364300D+00  0.100000D+01
   p     5 1.00
  0.187100D+02  0.140310D-01
  0.413300D+01  0.868660D-01
  0.120000D+01  0.290216D+00
  0.382700D+00  0.501008D+00
  0.120900D+00  0.343406D+00
   p     1 1.00
  0.382700D+00  0.100000D+01
   p     1 1.00
  0.120900D+00  0.100000D+01
   d     1 1.00
  0.109700D+01  0.100000D+01
   d     1 1.00
  0.318000D+00  0.100000D+01
   f     1 1.00
  0.761000D+00  0.100000D+01
  
  8  0
   s     4 1.00
  0.130100D+02  0.196850D-01
  0.196200D+01  0.137977D+00
  0.444600D+00  0.478148D+00
  0.122000D+00  0.501240D+00
   s     1 1.00
  0.122000D+00  0.100000D+01
   p     1 1.00
  0.727000D+00  0.100000D+01
  
  9  0
   s     4 1.00
  0.130100D+02  0.196850D-01
  0.196200D+01  0.137977D+00
  0.444600D+00  0.478148D+00
  0.122000D+00  0.501240D+00
   s     1 1.00
  0.122000D+00  0.100000D+01
   p     1 1.00
  0.727000D+00  0.100000D+01
  
 10  0
   s     4 1.00
  0.130100D+02  0.196850D-01
  0.196200D+01  0.137977D+00
  0.444600D+00  0.478148D+00
  0.122000D+00  0.501240D+00
   s     1 1.00
  0.122000D+00  0.100000D+01
   p     1 1.00
  0.727000D+00  0.100000D+01
  
 11  0
   s     4 1.00
  0.130100D+02  0.196850D-01
  0.196200D+01  0.137977D+00
  0.444600D+00  0.478148D+00
  0.122000D+00  0.501240D+00
   s     1 1.00
  0.122000D+00  0.100000D+01
   p     1 1.00
  0.727000D+00  0.100000D+01
  
 12  0
   s     4 1.00
  0.130100D+02  0.196850D-01
  0.196200D+01  0.137977D+00
  0.444600D+00  0.478148D+00
  0.122000D+00  0.501240D+00
   s     1 1.00
  0.122000D+00  0.100000D+01
   p     1 1.00
  0.727000D+00  0.100000D+01
  
 13  0
   s     4 1.00
  0.130100D+02  0.196850D-01
  0.196200D+01  0.137977D+00
  0.444600D+00  0.478148D+00
  0.122000D+00  0.501240D+00
   s     1 1.00
  0.122000D+00  0.100000D+01
   p     1 1.00
  0.727000D+00  0.100000D+01
  
 14  0
   s     4 1.00
  0.130100D+02  0.196850D-01
  0.196200D+01  0.137977D+00
  0.444600D+00  0.478148D+00
  0.122000D+00  0.501240D+00
   s     1 1.00
  0.122000D+00  0.100000D+01
   p     1 1.00
  0.727000D+00  0.100000D+01
  
[MO]
 Sym= __1_a__
 Ene=  0.000000000000000E+000
 Spin= Alpha
 Occup=    2.00000000000000     
                     1  5.713517214625510E-005
                     2  0.997846966039237     
                     3  1.084027973316200E-002
                     4  2.263571288605410E-003
                     5  9.206020635829240E-004
                     6 -1.282306221454730E-011
                     7 -2.252661649779540E-004
                     8  4.362851123753400E-003
                     9  6.950800153917750E-012
                    10 -1.827400440807950E-004
                    11 -1.781355960967430E-004
                    12  5.472845124468240E-012
                    13 -2.039306081507210E-004
                    14 -6.166786691804181E-005
                    15  2.682868580765447E-004
                    16 -1.392319829300970E-012
                    17  1.375544347874520E-004
                    18 -2.406586435588880E-004
                    19 -7.847660779980910E-013
                    20  1.947635796481809E-004
                    21  8.680088130272500E-013
                    22  7.788815147986290E-005
                    23  5.454710378403900E-004
                    24 -1.778706601579290E-014
                    25 -2.643748099326488E-004
                    26  1.897280278937187E-012
                    27 -3.462023988256707E-005
                    28  1.968052137574578E-004
                    29 -7.977892944246800E-013
                    30  6.855344819431902E-013
                    31  6.064727589248241E-005
                    32 -3.950745862756640E-004
                    33  2.867677908999620E-003
                    34  1.732221814245270E-004
                    35 -2.943363028829820E-004
                    36  4.703036626106650E-012
                    37  6.669578424329490E-005
                    38 -7.541857119432760E-003
                    39 -4.721153341803390E-012
                    40  6.641532719374990E-006
                    41  4.529339426591560E-004
                    42  4.536706795675890E-012
                    43  1.267957755060440E-004
                    44  4.169216974880720E-003
                    45  3.579723818647345E-004
                    46  7.067044475685280E-013
                    47  1.332323994349050E-005
                    48  1.448350805697824E-004
                    49  4.948394761524260E-013
                    50 -7.144953727504424E-007
                    51 -2.876716951384460E-012
                    52 -2.303031275910900E-005
                    53 -4.851662120091600E-004
                    54  1.439843128553120E-012
                    55 -1.323648964744059E-004
                    56  4.341778654047448E-013
                    57  3.075459571841789E-006
                    58  9.745097102398799E-005
                    59 -2.182344409651450E-013
                    60  1.333054483414630E-012
                    61 -3.805752819481282E-006
                    62 -2.208672709708250E-004
                    63 -1.846467069692580E-003
                    64  5.788685363983670E-005
                    65  5.840086408416730E-004
                    66  2.762694586246790E-012
                    67 -9.268041555798750E-004
                    68  1.155321327885310E-003
                    69  3.845975454467380E-012
                    70 -3.638688750009750E-005
                    71  6.364449225592240E-004
                    72  6.227233029264700E-013
                    73 -3.730557297491820E-004
                    74 -2.090241281883400E-004
                    75  9.707844197024738E-005
                    76 -1.732088736477900E-012
                    77 -1.109049689092140E-005
                    78  4.414945125552780E-005
                    79 -1.101484593481960E-012
                    80 -3.192010937864363E-005
                    81  9.211080005247809E-012
                    82  2.376156550271970E-004
                    83 -4.427259288191640E-005
                    84  3.161328582345440E-012
                    85 -9.673343611277947E-005
                    86  3.536333596130857E-012
                    87 -3.214369305913639E-005
                    88  2.336884195568860E-005
                    89  2.019274421607430E-013
                    90  6.118966356611246E-013
                    91  1.035665038434819E-005
                    92 -1.974902723645310E-004
                    93 -1.653665985802170E-003
                    94  6.362027997686230E-005
                    95  5.299052810516810E-004
                    96  1.471407509193030E-012
                    97  8.372439938672590E-004
                    98  1.052155709426290E-003
                    99 -1.734661471134540E-012
                   100  2.333346274387430E-005
                   101  5.965625265301680E-004
                   102 -7.077551446142460E-012
                   103  5.399278011678720E-004
                   104  1.094541410567630E-004
                   105  9.827660357316715E-005
                   106  2.348330075077630E-012
                   107  1.608020585941180E-005
                   108  4.078158842780580E-005
                   109 -2.955113278456470E-012
                   110 -8.504049508932111E-005
                   111 -4.694039566117040E-012
                   112 -2.598760989770210E-004
                   113 -4.553380751260440E-005
                   114 -1.257136463166010E-014
                   115 -9.644953722497204E-005
                   116 -2.859607501143679E-012
                   117  3.324247730397148E-005
                   118  2.045336261858480E-005
                   119  1.512466814561890E-012
                   120 -8.056108690531727E-014
                   121 -1.386268786772107E-005
                   122 -1.476880828351790E-004
                   123  5.983840332467590E-005
                   124  1.200189955857610E-004
                   125  8.779447006882490E-005
                   126 -2.610258116919930E-012
                   127  5.052345665646750E-005
                   128 -8.748564673933330E-004
                   129 -1.995492212731140E-013
                   130 -4.674372375751460E-006
                   131  3.606951598545350E-004
                   132 -5.182520781371640E-012
                   133 -2.284130691642750E-004
                   134  5.328457918177810E-004
                   135 -1.853063504622233E-005
                   136 -5.678159731376620E-013
                   137  2.906436663384350E-006
                   138  2.503339078440320E-006
                   139  8.761256936776930E-013
                   140 -1.776178963230268E-004
                   141  8.364530519225999E-012
                   142  1.712342221146690E-004
                   143  1.756026749838676E-005
                   144 -5.634934196391170E-013
                   145 -3.985001526844376E-005
                   146 -3.692514529746251E-012
                   147  2.056105043865665E-006
                   148 -8.607457364293420E-006
                   149 -1.138584934767560E-013
                   150  2.116933775843469E-012
                   151 -2.662818376819824E-006
                   152 -1.507427436791370E-004
                   153  1.475451809030980E-005
                   154  1.030143428415870E-004
                   155  1.777022817627060E-004
                   156 -4.516310524790740E-012
                   157 -4.436850792866860E-005
                   158 -8.298065944718860E-004
                   159  1.040982554251590E-011
                   160 -1.814239579422250E-006
                   161  3.244670338874020E-004
                   162  3.397831036576720E-012
                   163  7.494207254965460E-005
                   164  8.149932256205940E-004
                   165 -1.532399160814520E-005
                   166 -4.701918273733300E-013
                   167 -6.694920237719080E-007
                   168  2.440570533265140E-006
                   169 -6.347313291735310E-013
                   170 -1.781064010727630E-004
                   171 -4.498793826545450E-012
                   172 -1.908592530692530E-004
                   173  5.959937963004340E-006
                   174  1.973807838968290E-012
                   175 -3.797045350705422E-005
                   176 -2.577437063327030E-012
                   177  2.687347813280870E-007
                   178 -1.016535092120978E-005
                   179  2.793354020372870E-012
                   180 -6.724948162153377E-013
                   181  4.001544408124706E-006
                   182 -1.259194505585620E-004
                   183 -3.385648094678250E-004
                   184  3.071888926110210E-005
                   185  1.566789661865390E-004
                   186 -4.694679929788690E-012
                   187 -1.434757627388750E-006
                   188 -3.887505635823310E-005
                   189  1.306409955812050E-012
                   190 -1.454362274341460E-005
                   191  8.352900593790211E-006
                   192  3.897579479985060E-012
                   193 -1.657633833803820E-004
                   194  9.482865458229570E-005
                   195  2.019558826623402E-005
                   196  9.398612534670830E-013
                   197  1.033003684442060E-006
                   198  9.690751403888020E-006
                   199 -2.084455688151490E-012
                   200  6.146008700501804E-005
                   201  8.500655731330070E-013
                   202  1.243750546454920E-005
                   203  4.581694177864640E-005
                   204  5.802310750680820E-012
                   205 -1.328541384152029E-005
                   206  2.218058157800844E-012
                   207 -1.905060640696898E-006
                   208  5.363002440059880E-006
                   209 -4.650421192337390E-012
                   210  1.055778669827379E-012
                   211  3.291357718682287E-007
                   212  5.192134165625340E-003
                   213 -3.131586628482350E-003
                   214  1.142823702828070E-012
                   215  3.525971050299420E-004
                   216  3.405192859009970E-004
                   217  4.154462099141240E-003
                   218 -2.447376801948060E-003
                   219  6.774820347165810E-013
                   220 -5.080941864975260E-004
                   221  3.787936715147600E-004
                   222 -7.476620708751510E-004
                   223  4.327712581835300E-006
                   224  1.265066257078880E-012
                   225 -2.283484172181770E-005
                   226 -4.628403816119750E-005
                   227 -7.338175165797160E-004
                   228 -3.830412897357050E-005
                   229 -2.529974378634100E-013
                   230  1.894266956044870E-005
                   231 -5.731640986769800E-005
                   232 -2.611895112388050E-004
                   233 -3.812994776602240E-004
                   234  6.536265324303410E-013
                   235 -6.560716296250480E-006
                   236  7.571062513510800E-006
                   237 -2.386143205795750E-004
                   238 -3.924426408724450E-004
                   239 -1.762821549888290E-013
                   240  7.743019680292810E-006
                   241  8.173243136332730E-006
                   242  7.464782833632030E-005
                   243 -1.454849811526040E-004
                   244 -2.730413456514130E-012
                   245  9.705506126771580E-007
                   246  1.388147672418570E-005
 Sym= __2_a__
 Ene=  0.000000000000000E+000
 Spin= Alpha
 Occup=    2.00000000000000     
                     1 -4.336403367126500E-005
                     2 -2.147627426026010E-004
                     3  2.102559755257160E-003
                     4  1.041040538541280E-004
                     5  1.343635144498910E-003
                     6 -1.981241819732450E-011
                     7  6.646967633872860E-005
                     8  3.032555455465970E-003
                     9  4.725755063106730E-012
                    10  3.730182269322270E-006
                    11 -4.762823802560650E-005
                    12  6.008523619271280E-012
                    13 -2.235511690828020E-005
                    14 -5.510625276740390E-004
                    15  3.807320124708652E-005
                    16 -1.101585729134120E-012
                    17  3.850115463196710E-006
                    18  6.495536545310460E-005
                    19  1.227582562042180E-012
                    20 -3.345130897358772E-004
                    21 -4.145555783669690E-012
                    22 -5.737237816673720E-005
                    23 -3.687189092418880E-004
                    24  9.777342749034961E-013
                    25  1.747460085653115E-004
                    26 -1.436721475062802E-012
                    27  1.293970162468011E-005
                    28 -2.058482887609380E-006
                    29  1.701644321737080E-012
                    30 -1.101852670962129E-012
                    31  1.560241416671368E-006
                    32   1.00105162795018     
                    33  9.298075721763860E-003
                    34  2.662361825473320E-003
                    35 -7.769375141862380E-003
                    36 -1.842644181575380E-012
                    37  8.177365543226720E-006
                    38 -4.118971228913770E-003
                    39  5.732302417775410E-012
                    40 -7.900571895746750E-006
                    41  9.816184343578349E-004
                    42  1.009840713805440E-011
                    43 -5.323079323531770E-005
                    44  4.532856674837680E-003
                    45  4.820937754329279E-004
                    46 -1.187146595422060E-012
                    47  4.662161654445070E-006
                    48 -4.348192162522660E-004
                    49  2.826826287109830E-012
                    50  6.047686460632691E-004
                    51 -5.706957151613880E-012
                    52 -5.830268480016980E-005
                    53  9.601931779493820E-004
                    54 -3.192800858851820E-012
                    55  3.914748768743948E-004
                    56  1.412054584014390E-012
                    57  4.544935650472409E-007
                    58 -2.100709718707680E-004
                    59 -5.184785758025900E-013
                    60  4.400331720359137E-012
                    61 -1.080283834263855E-007
                    62  7.210379836657520E-003
                    63 -2.071796076616030E-003
                    64 -2.750220409640380E-004
                    65  3.045842189283760E-003
                    66  9.683833323005909E-012
                    67  1.051007126797500E-004
                    68 -1.957020828996260E-005
                    69 -4.369876183750460E-012
                    70  5.855218598905820E-004
                    71  1.082852995061050E-005
                    72 -1.803425733694330E-011
                    73 -2.157175249466820E-003
                    74  1.138179298206550E-004
                    75 -1.608803256628165E-005
                    76 -1.380194475887770E-012
                    77  1.485428532498150E-005
                    78  2.867136822182980E-005
                    79 -2.287020075678140E-012
                    80  7.839228250267498E-004
                    81 -6.101844137740130E-013
                    82 -4.336941998652420E-004
                    83 -1.413485413479306E-006
                    84 -2.700801964213100E-013
                    85  7.539427084638333E-005
                    86 -2.523093748988621E-012
                    87  4.967069115050551E-005
                    88 -1.275076477698100E-004
                    89  6.994230949408420E-013
                    90  6.030804897289636E-013
                    91  5.027586980143403E-005
                    92  7.248289180145150E-003
                    93 -2.064035033423890E-003
                    94 -2.834352196171670E-004
                    95  3.101608279785330E-003
                    96  3.541255951754860E-012
                    97 -1.021510249681610E-004
                    98 -2.484152055711920E-005
                    99 -4.728531136473090E-012
                   100 -6.311772080794830E-004
                   101  1.245758311808740E-005
                   102  2.098895978249150E-012
                   103  2.113823780207390E-003
                   104  4.249973118116380E-005
                   105 -1.455473815267720E-005
                   106  1.013109797795340E-012
                   107 -1.264720067741730E-005
                   108  2.793261323006620E-005
                   109  2.961924702332310E-013
                   110  7.578160301062273E-004
                   111  1.935866292481310E-012
                   112  4.311245534301470E-004
                   113 -1.562580028087160E-005
                   114  6.508351230927500E-013
                   115  7.231756709752866E-005
                   116 -2.703737175140201E-012
                   117 -4.685632405920337E-005
                   118 -1.273773345356300E-004
                   119 -1.161036385261160E-012
                   120 -4.055569586388155E-013
                   121 -5.112642020668290E-005
                   122 -2.375153850880620E-004
                   123 -7.731464984884880E-004
                   124  2.229919320051020E-004
                   125 -9.889397753548329E-005
                   126 -6.011617954729130E-012
                   127 -2.108147989558270E-005
                   128 -2.449616481194260E-004
                   129  2.474930637287650E-012
                   130  1.011762676041520E-006
                   131  5.390054689465870E-004
                   132  2.638521400771030E-011
                   133  3.446290204233640E-004
                   134  7.985539355530700E-004
                   135 -1.328515765646728E-005
                   136 -1.145840146564430E-012
                   137  5.218040615527500E-005
                   138  1.355446285816572E-005
                   139  3.944171042073150E-012
                   140 -2.932793121390655E-004
                   141  5.328469787777630E-014
                   142 -2.210257239899680E-004
                   143 -1.452100017437124E-005
                   144  9.532393342093751E-013
                   145  2.053829717494928E-006
                   146  3.060792748877910E-012
                   147 -4.190056940120084E-005
                   148 -4.002633617958640E-005
                   149  3.270649566864210E-012
                   150 -5.367953395261820E-013
                   151 -5.815845086399564E-006
                   152 -2.342590387010790E-004
                   153 -7.602623721455770E-004
                   154  2.258318360344080E-004
                   155 -1.106501759309880E-004
                   156 -4.014524608851540E-012
                   157  1.783029030884690E-005
                   158 -2.467601099746070E-004
                   159  9.235778673412281E-012
                   160  1.409642677313740E-005