[Molden Format]
[Atoms] AU
  N     1    7     0.0000000000   -0.0026137500   -4.2826359100        
  C     2    6     0.0000000000   -0.0012635800   -1.7760907300        
  C     3    6     0.0000000000   -2.3409421400   -0.4113046800        
  C     4    6     0.0000000000    2.3374825900   -0.4140630500        
  C     5    6     0.0000000000   -2.3004512000    2.1625773200        
  C     6    6     0.0000000000    2.3011467500    2.1600554200        
  C     7    6     0.0000000000    0.0010629300    3.4721001200        
  H     8    1     0.0000000000   -1.4382150400   -5.1945632600        
  H     9    1     0.0000000000    1.6676733400   -5.2637267000        
  H    10    1     0.0000000000   -4.0762005000   -1.4453189800        
  H    11    1     0.0000000000    4.0719014800   -1.4499919500        
  H    12    1     0.0000000000   -4.0409191100    3.1971833900        
  H    13    1     0.0000000000    4.0436639100    3.1917514400        
  H    14    1     0.0000000000    0.0020242500    5.4985506300        
[5D]
[7F]
[GTO]
  1  0
   s    12 1.00
  0.114200D+05  0.172695D-04
  0.171200D+04  0.134411D-03
  0.389300D+03  0.694561D-03
  0.110000D+03  0.278531D-02
  0.355700D+02  0.863457D-02
  0.125400D+02  0.199805D-01
  0.464400D+01  0.262908D-01
  0.129300D+01 -0.243845D-01
  0.511800D+00 -0.924934D-01
  0.178700D+00 -0.339683D+00
  0.246240D-01  0.345111D+00
  0.112530D-01  0.752750D+00
   s    10 1.00
  0.114200D+05  0.523000D-03
  0.171200D+04  0.404500D-02
  0.389300D+03  0.207750D-01
  0.110000D+03  0.807269D-01
  0.355700D+02  0.233074D+00
  0.125400D+02  0.433501D+00
  0.464400D+01  0.347472D+00
  0.129300D+01  0.412620D-01
  0.511800D+00 -0.850799D-02
  0.178700D+00  0.238400D-02
   s    10 1.00
  0.114200D+05 -0.115000D-03
  0.171200D+04 -0.895000D-03
  0.389300D+03 -0.462400D-02
  0.110000D+03 -0.185280D-01
  0.355700D+02 -0.573390D-01
  0.125400D+02 -0.132076D+00
  0.464400D+01 -0.172510D+00
  0.129300D+01  0.151814D+00
  0.511800D+00  0.599944D+00
  0.178700D+00  0.387462D+00
   s     1 1.00
  0.129300D+01  0.100000D+01
   s     1 1.00
  0.178700D+00  0.100000D+01
   p     5 1.00
  0.266300D+02  0.146700D-01
  0.594800D+01  0.917640D-01
  0.174200D+01  0.298683D+00
  0.555000D+00  0.498487D+00
  0.172500D+00  0.337023D+00
   p     1 1.00
  0.174200D+01  0.100000D+01
   p     1 1.00
  0.555000D+00  0.100000D+01
   d     1 1.00
  0.165400D+01  0.100000D+01
   d     1 1.00
  0.469000D+00  0.100000D+01
   f     1 1.00
  0.109300D+01  0.100000D+01
  
  2  0
   s    10 1.00
  0.823600D+04  0.531000D-03
  0.123500D+04  0.410800D-02
  0.280800D+03  0.210870D-01
  0.792700D+02  0.818530D-01
  0.255900D+02  0.234817D+00
  0.899700D+01  0.434401D+00
  0.331900D+01  0.346129D+00
  0.905900D+00  0.393780D-01
  0.364300D+00 -0.898300D-02
  0.128500D+00  0.238500D-02
   s    10 1.00
  0.823600D+04 -0.113000D-03
  0.123500D+04 -0.878000D-03
  0.280800D+03 -0.454000D-02
  0.792700D+02 -0.181330D-01
  0.255900D+02 -0.557600D-01
  0.899700D+01 -0.126895D+00
  0.331900D+01 -0.170352D+00
  0.905900D+00  0.140382D+00
  0.364300D+00  0.598684D+00
  0.128500D+00  0.395389D+00
   s     1 1.00
  0.905900D+00  0.100000D+01
   s     1 1.00
  0.364300D+00  0.100000D+01
   p     5 1.00
  0.187100D+02  0.140310D-01
  0.413300D+01  0.868660D-01
  0.120000D+01  0.290216D+00
  0.382700D+00  0.501008D+00
  0.120900D+00  0.343406D+00
   p     1 1.00
  0.382700D+00  0.100000D+01
   p     1 1.00
  0.120900D+00  0.100000D+01
   d     1 1.00
  0.109700D+01  0.100000D+01
   d     1 1.00
  0.318000D+00  0.100000D+01
   f     1 1.00
  0.761000D+00  0.100000D+01
  
  3  0
   s    10 1.00
  0.823600D+04  0.531000D-03
  0.123500D+04  0.410800D-02
  0.280800D+03  0.210870D-01
  0.792700D+02  0.818530D-01
  0.255900D+02  0.234817D+00
  0.899700D+01  0.434401D+00
  0.331900D+01  0.346129D+00
  0.905900D+00  0.393780D-01
  0.364300D+00 -0.898300D-02
  0.128500D+00  0.238500D-02
   s    10 1.00
  0.823600D+04 -0.113000D-03
  0.123500D+04 -0.878000D-03
  0.280800D+03 -0.454000D-02
  0.792700D+02 -0.181330D-01
  0.255900D+02 -0.557600D-01
  0.899700D+01 -0.126895D+00
  0.331900D+01 -0.170352D+00
  0.905900D+00  0.140382D+00
  0.364300D+00  0.598684D+00
  0.128500D+00  0.395389D+00
   s     1 1.00
  0.905900D+00  0.100000D+01
   s     1 1.00
  0.364300D+00  0.100000D+01
   p     5 1.00
  0.187100D+02  0.140310D-01
  0.413300D+01  0.868660D-01
  0.120000D+01  0.290216D+00
  0.382700D+00  0.501008D+00
  0.120900D+00  0.343406D+00
   p     1 1.00
  0.382700D+00  0.100000D+01
   p     1 1.00
  0.120900D+00  0.100000D+01
   d     1 1.00
  0.109700D+01  0.100000D+01
   d     1 1.00
  0.318000D+00  0.100000D+01
   f     1 1.00
  0.761000D+00  0.100000D+01
  
  4  0
   s    10 1.00
  0.823600D+04  0.531000D-03
  0.123500D+04  0.410800D-02
  0.280800D+03  0.210870D-01
  0.792700D+02  0.818530D-01
  0.255900D+02  0.234817D+00
  0.899700D+01  0.434401D+00
  0.331900D+01  0.346129D+00
  0.905900D+00  0.393780D-01
  0.364300D+00 -0.898300D-02
  0.128500D+00  0.238500D-02
   s    10 1.00
  0.823600D+04 -0.113000D-03
  0.123500D+04 -0.878000D-03
  0.280800D+03 -0.454000D-02
  0.792700D+02 -0.181330D-01
  0.255900D+02 -0.557600D-01
  0.899700D+01 -0.126895D+00
  0.331900D+01 -0.170352D+00
  0.905900D+00  0.140382D+00
  0.364300D+00  0.598684D+00
  0.128500D+00  0.395389D+00
   s     1 1.00
  0.905900D+00  0.100000D+01
   s     1 1.00
  0.364300D+00  0.100000D+01
   p     5 1.00
  0.187100D+02  0.140310D-01
  0.413300D+01  0.868660D-01
  0.120000D+01  0.290216D+00
  0.382700D+00  0.501008D+00
  0.120900D+00  0.343406D+00
   p     1 1.00
  0.382700D+00  0.100000D+01
   p     1 1.00
  0.120900D+00  0.100000D+01
   d     1 1.00
  0.109700D+01  0.100000D+01
   d     1 1.00
  0.318000D+00  0.100000D+01
   f     1 1.00
  0.761000D+00  0.100000D+01
  
  5  0
   s    10 1.00
  0.823600D+04  0.531000D-03
  0.123500D+04  0.410800D-02
  0.280800D+03  0.210870D-01
  0.792700D+02  0.818530D-01
  0.255900D+02  0.234817D+00
  0.899700D+01  0.434401D+00
  0.331900D+01  0.346129D+00
  0.905900D+00  0.393780D-01
  0.364300D+00 -0.898300D-02
  0.128500D+00  0.238500D-02
   s    10 1.00
  0.823600D+04 -0.113000D-03
  0.123500D+04 -0.878000D-03
  0.280800D+03 -0.454000D-02
  0.792700D+02 -0.181330D-01
  0.255900D+02 -0.557600D-01
  0.899700D+01 -0.126895D+00
  0.331900D+01 -0.170352D+00
  0.905900D+00  0.140382D+00
  0.364300D+00  0.598684D+00
  0.128500D+00  0.395389D+00
   s     1 1.00
  0.905900D+00  0.100000D+01
   s     1 1.00
  0.364300D+00  0.100000D+01
   p     5 1.00
  0.187100D+02  0.140310D-01
  0.413300D+01  0.868660D-01
  0.120000D+01  0.290216D+00
  0.382700D+00  0.501008D+00
  0.120900D+00  0.343406D+00
   p     1 1.00
  0.382700D+00  0.100000D+01
   p     1 1.00
  0.120900D+00  0.100000D+01
   d     1 1.00
  0.109700D+01  0.100000D+01
   d     1 1.00
  0.318000D+00  0.100000D+01
   f     1 1.00
  0.761000D+00  0.100000D+01
  
  6  0
   s    10 1.00
  0.823600D+04  0.531000D-03
  0.123500D+04  0.410800D-02
  0.280800D+03  0.210870D-01
  0.792700D+02  0.818530D-01
  0.255900D+02  0.234817D+00
  0.899700D+01  0.434401D+00
  0.331900D+01  0.346129D+00
  0.905900D+00  0.393780D-01
  0.364300D+00 -0.898300D-02
  0.128500D+00  0.238500D-02
   s    10 1.00
  0.823600D+04 -0.113000D-03
  0.123500D+04 -0.878000D-03
  0.280800D+03 -0.454000D-02
  0.792700D+02 -0.181330D-01
  0.255900D+02 -0.557600D-01
  0.899700D+01 -0.126895D+00
  0.331900D+01 -0.170352D+00
  0.905900D+00  0.140382D+00
  0.364300D+00  0.598684D+00
  0.128500D+00  0.395389D+00
   s     1 1.00
  0.905900D+00  0.100000D+01
   s     1 1.00
  0.364300D+00  0.100000D+01
   p     5 1.00
  0.187100D+02  0.140310D-01
  0.413300D+01  0.868660D-01
  0.120000D+01  0.290216D+00
  0.382700D+00  0.501008D+00
  0.120900D+00  0.343406D+00
   p     1 1.00
  0.382700D+00  0.100000D+01
   p     1 1.00
  0.120900D+00  0.100000D+01
   d     1 1.00
  0.109700D+01  0.100000D+01
   d     1 1.00
  0.318000D+00  0.100000D+01
   f     1 1.00
  0.761000D+00  0.100000D+01
  
  7  0
   s    10 1.00
  0.823600D+04  0.531000D-03
  0.123500D+04  0.410800D-02
  0.280800D+03  0.210870D-01
  0.792700D+02  0.818530D-01
  0.255900D+02  0.234817D+00
  0.899700D+01  0.434401D+00
  0.331900D+01  0.346129D+00
  0.905900D+00  0.393780D-01
  0.364300D+00 -0.898300D-02
  0.128500D+00  0.238500D-02
   s    10 1.00
  0.823600D+04 -0.113000D-03
  0.123500D+04 -0.878000D-03
  0.280800D+03 -0.454000D-02
  0.792700D+02 -0.181330D-01
  0.255900D+02 -0.557600D-01
  0.899700D+01 -0.126895D+00
  0.331900D+01 -0.170352D+00
  0.905900D+00  0.140382D+00
  0.364300D+00  0.598684D+00
  0.128500D+00  0.395389D+00
   s     1 1.00
  0.905900D+00  0.100000D+01
   s     1 1.00
  0.364300D+00  0.100000D+01
   p     5 1.00
  0.187100D+02  0.140310D-01
  0.413300D+01  0.868660D-01
  0.120000D+01  0.290216D+00
  0.382700D+00  0.501008D+00
  0.120900D+00  0.343406D+00
   p     1 1.00
  0.382700D+00  0.100000D+01
   p     1 1.00
  0.120900D+00  0.100000D+01
   d     1 1.00
  0.109700D+01  0.100000D+01
   d     1 1.00
  0.318000D+00  0.100000D+01
   f     1 1.00
  0.761000D+00  0.100000D+01
  
  8  0
   s     4 1.00
  0.130100D+02  0.196850D-01
  0.196200D+01  0.137977D+00
  0.444600D+00  0.478148D+00
  0.122000D+00  0.501240D+00
   s     1 1.00
  0.122000D+00  0.100000D+01
   p     1 1.00
  0.727000D+00  0.100000D+01
  
  9  0
   s     4 1.00
  0.130100D+02  0.196850D-01
  0.196200D+01  0.137977D+00
  0.444600D+00  0.478148D+00
  0.122000D+00  0.501240D+00
   s     1 1.00
  0.122000D+00  0.100000D+01
   p     1 1.00
  0.727000D+00  0.100000D+01
  
 10  0
   s     4 1.00
  0.130100D+02  0.196850D-01
  0.196200D+01  0.137977D+00
  0.444600D+00  0.478148D+00
  0.122000D+00  0.501240D+00
   s     1 1.00
  0.122000D+00  0.100000D+01
   p     1 1.00
  0.727000D+00  0.100000D+01
  
 11  0
   s     4 1.00
  0.130100D+02  0.196850D-01
  0.196200D+01  0.137977D+00
  0.444600D+00  0.478148D+00
  0.122000D+00  0.501240D+00
   s     1 1.00
  0.122000D+00  0.100000D+01
   p     1 1.00
  0.727000D+00  0.100000D+01
  
 12  0
   s     4 1.00
  0.130100D+02  0.196850D-01
  0.196200D+01  0.137977D+00
  0.444600D+00  0.478148D+00
  0.122000D+00  0.501240D+00
   s     1 1.00
  0.122000D+00  0.100000D+01
   p     1 1.00
  0.727000D+00  0.100000D+01
  
 13  0
   s     4 1.00
  0.130100D+02  0.196850D-01
  0.196200D+01  0.137977D+00
  0.444600D+00  0.478148D+00
  0.122000D+00  0.501240D+00
   s     1 1.00
  0.122000D+00  0.100000D+01
   p     1 1.00
  0.727000D+00  0.100000D+01
  
 14  0
   s     4 1.00
  0.130100D+02  0.196850D-01
  0.196200D+01  0.137977D+00
  0.444600D+00  0.478148D+00
  0.122000D+00  0.501240D+00
   s     1 1.00
  0.122000D+00  0.100000D+01
   p     1 1.00
  0.727000D+00  0.100000D+01
  
[MO]
 Sym= __1_A__
 Ene=  0.000000000000000E+000
 Spin= Alpha
 Occup=    2.00000000000000     
                     1  5.713517360054294E-005
                     2  0.997846966028734     
                     3  1.084027981878467E-002
                     4  2.263571284504587E-003
                     5  9.206019283231484E-004
                     6 -1.282306220656453E-011
                     7 -2.252661735322392E-004
                     8  4.362851143199580E-003
                     9  6.950800179584345E-012
                    10 -1.827400441480180E-004
                    11 -1.781355844675833E-004
                    12  5.472845097748532E-012
                    13 -2.039306081956127E-004
                    14 -6.166786700779125E-005
                    15  2.682868603777741E-004
                    16 -1.392319824306144E-012
                    17  1.375544319476716E-004
                    18 -2.406586452650066E-004
                    19 -7.847660711439748E-013
                    20  1.947635967973794E-004
                    21  8.680088711443410E-013
                    22  7.788814169730562E-005
                    23  5.454710500546860E-004
                    24 -1.778709036361084E-014
                    25 -2.643748108637561E-004
                    26  1.897280318266417E-012
                    27 -3.462024170041221E-005
                    28  1.968052111283762E-004
                    29 -7.977892977893457E-013
                    30  6.855344938005802E-013
                    31  6.064727587961221E-005
                    32 -3.950748053045407E-004
                    33  2.867679783104387E-003
                    34  1.732221544892950E-004
                    35 -2.943363320642724E-004
                    36  4.703036690442987E-012
                    37  6.669546231471412E-005
                    38 -7.541856308291128E-003
                    39 -4.721153388980998E-012
                    40  6.641551045346831E-006
                    41  4.529339126848914E-004
                    42  4.536706932903409E-012
                    43  1.267958656693204E-004
                    44  4.169216921284353E-003
                    45  3.579723767330144E-004
                    46  7.067044383369119E-013
                    47  1.332323225555884E-005
                    48  1.448350424310727E-004
                    49  4.948395045888529E-013
                    50 -7.144932224638056E-007
                    51 -2.876716803782125E-012
                    52 -2.303032828274745E-005
                    53 -4.851662752916500E-004
                    54  1.439843119764533E-012
                    55 -1.323648741096972E-004
                    56  4.341778393771643E-013
                    57  3.075459677539695E-006
                    58  9.745094509917010E-005
                    59 -2.182344489897222E-013
                    60  1.333054488642190E-012
                    61 -3.805749681992131E-006
                    62 -2.208673119086211E-004
                    63 -1.846466571203326E-003
                    64  5.788684653090035E-005
                    65  5.840086563372940E-004
                    66  2.762695032138853E-012
                    67 -9.268030922344691E-004
                    68  1.155320792445091E-003
                    69  3.845975197022266E-012
                    70 -3.638696883339989E-005
                    71  6.364450075143135E-004
                    72  6.227231498856369E-013
                    73 -3.730560950041702E-004
                    74 -2.090239349775426E-004
                    75  9.707842739593869E-005
                    76 -1.732088702628794E-012
                    77 -1.109052893136802E-005
                    78  4.414942847142706E-005
                    79 -1.101484588795641E-012
                    80 -3.192010583270930E-005
                    81  9.211079941324932E-012
                    82  2.376156392789698E-004
                    83 -4.427262176645432E-005
                    84  3.161328453410829E-012
                    85 -9.673344473239912E-005
                    86  3.536333591718032E-012
                    87 -3.214369315487504E-005
                    88  2.336885305401296E-005
                    89  2.019274504502970E-013
                    90  6.118966032264904E-013
                    91  1.035664135235764E-005
                    92 -1.974903050218655E-004
                    93 -1.653665770327072E-003
                    94  6.362027840065212E-005
                    95  5.299053145490225E-004
                    96  1.471407304600512E-012
                    97  8.372431861034543E-004
                    98  1.052155500455305E-003
                    99 -1.734661382243826E-012
                   100  2.333353045902586E-005
                   101  5.965625833422944E-004
                   102 -7.077551589173328E-012
                   103  5.399281415540744E-004
                   104  1.094542757281690E-004
                   105  9.827659256280661E-005
                   106  2.348330090360522E-012
                   107  1.608022743638121E-005
                   108  4.078157301787898E-005
                   109 -2.955113288897691E-012
                   110 -8.504049954194752E-005
                   111 -4.694039480840378E-012
                   112 -2.598761027574124E-004
                   113 -4.553383333795296E-005
                   114 -1.257123343517081E-014
                   115 -9.644954407419734E-005
                   116 -2.859607479689526E-012
                   117  3.324247944757629E-005
                   118  2.045336878189992E-005
                   119  1.512466834626081E-012
                   120 -8.056108747919496E-014
                   121 -1.386268137552033E-005
                   122 -1.476881068090871E-004
                   123  5.983808705711447E-005
                   124  1.200190101100654E-004
                   125  8.779451043764814E-005
                   126 -2.610257862778963E-012
                   127  5.052345369571777E-005
                   128 -8.748562888434065E-004
                   129 -1.995492718160026E-013
                   130 -4.674361960117670E-006
                   131  3.606951786654020E-004
                   132 -5.182520816718359E-012
                   133 -2.284131066638573E-004
                   134  5.328459119423237E-004
                   135 -1.853064092139356E-005
                   136 -5.678159763924986E-013
                   137  2.906419766362453E-006
                   138  2.503339751348172E-006
                   139  8.761256948270142E-013
                   140 -1.776179142645674E-004
                   141  8.364530388968049E-012
                   142  1.712342034891293E-004
                   143  1.756026786761873E-005
                   144 -5.634934617471720E-013
                   145 -3.985002039758227E-005
                   146 -3.692514507440098E-012
                   147  2.056112608626727E-006
                   148 -8.607457405172931E-006
                   149 -1.138585170758059E-013
                   150  2.116933740896790E-012
                   151 -2.662817193457639E-006
                   152 -1.507427674780377E-004
                   153  1.475430249923233E-005
                   154  1.030143540528317E-004
                   155  1.777023277836499E-004
                   156 -4.516310597478931E-012
                   157 -4.436852945456256E-005
                   158 -8.298065434433750E-004
                   159  1.040982561156298E-011
                   160 -1.814243353362230E-006
                   161  3.244670554525911E-004
                   162  3.397831134915586E-012
                   163  7.494209355387317E-005
                   164  8.149933658012782E-004
                   165 -1.532399301329016E-005
                   166 -4.701918346724185E-013
                   167 -6.694795712386348E-007
                   168  2.440571676733274E-006
                   169 -6.347313072780669E-013
                   170 -1.781064144774251E-004
                   171 -4.498793660776794E-012
                   172 -1.908592422087762E-004
                   173  5.959937177961194E-006
                   174  1.973807700187949E-012
                   175 -3.797045617272021E-005
                   176 -2.577437078204779E-012
                   177  2.687287656119218E-007
                   178 -1.016535175394128E-005
                   179  2.793354005619470E-012
                   180 -6.724947892111843E-013
                   181  4.001543634011730E-006
                   182 -1.259194774303356E-004
                   183 -3.385650223114697E-004
                   184  3.071889545738799E-005
                   185  1.566790231535550E-004
                   186 -4.694679975550968E-012
                   187 -1.434748833271595E-006
                   188 -3.887498261575133E-005
                   189  1.306410000042649E-012
                   190 -1.454362443109442E-005
                   191  8.352892094839134E-006
                   192  3.897579616667227E-012
                   193 -1.657633874034153E-004
                   194  9.482865629715473E-005
                   195  2.019558929235730E-005
                   196  9.398612454608623E-013
                   197  1.033002811625443E-006
                   198  9.690752801798560E-006
                   199 -2.084455669977962E-012
                   200  6.146010339668952E-005
                   201  8.500655634119185E-013
                   202  1.243750327617423E-005
                   203  4.581694871845568E-005
                   204  5.802310537993628E-012
                   205 -1.328541315482395E-005
                   206  2.218058129425739E-012
                   207 -1.905060311901053E-006
                   208  5.363002290467752E-006
                   209 -4.650421172720496E-012
                   210  1.055778643609020E-012
                   211  3.291359080776432E-007
                   212  5.192134188100060E-003
                   213 -3.131586607479502E-003
                   214  1.142823720732982E-012
                   215  3.525971077615901E-004
                   216  3.405192880021312E-004
                   217  4.154462150210659E-003
                   218 -2.447376766330030E-003
                   219  6.774820001719868E-013
                   220 -5.080941904613196E-004
                   221  3.787936725171023E-004
                   222 -7.476624378918237E-004
                   223  4.327708747371774E-006
                   224  1.265066286478945E-012
                   225 -2.283485151902321E-005
                   226 -4.628405713696768E-005
                   227 -7.338179237659848E-004
                   228 -3.830409512671924E-005
                   229 -2.529975200351012E-013
                   230  1.894268735852859E-005
                   231 -5.731642715097372E-005
                   232 -2.611894321123780E-004
                   233 -3.812995450373158E-004
                   234  6.536265576627777E-013
                   235 -6.560716038891802E-006
                   236  7.571067324477766E-006
                   237 -2.386143062236949E-004
                   238 -3.924427004145068E-004
                   239 -1.762822357010197E-013
                   240  7.743022564499040E-006
                   241  8.173247457032951E-006
                   242  7.464783216531571E-005
                   243 -1.454850302924086E-004
                   244 -2.730413391487493E-012
                   245  9.705506312856068E-007
                   246  1.388147945793188E-005
 Sym= __2_A__
 Ene=  0.000000000000000E+000
 Spin= Alpha
 Occup=    2.00000000000000     
                     1 -4.336403396402453E-005
                     2 -2.147625742113786E-004
                     3  2.102559748181184E-003
                     4  1.041040548679320E-004
                     5  1.343635163882643E-003
                     6 -1.981241826153449E-011
                     7  6.646967638904494E-005
                     8  3.032555457040337E-003
                     9  4.725755100637358E-012
                    10  3.730182319043334E-006
                    11 -4.762823875774938E-005
                    12  6.008523652318582E-012
                    13 -2.235511679045131E-005
                    14 -5.510625249704889E-004
                    15  3.807320084989994E-005
                    16 -1.101585739949853E-012
                    17  3.850115205613033E-006
                    18  6.495536591688928E-005
                    19  1.227582570664006E-012
                    20 -3.345130927032217E-004
                    21 -4.145555814229347E-012
                    22 -5.737237920437483E-005
                    23 -3.687189094572822E-004
                    24  9.777342433048483E-013
                    25  1.747460094007282E-004
                    26 -1.436721475284599E-012
                    27  1.293970151322964E-005
                    28 -2.058483172044708E-006
                    29  1.701644327234489E-012
                    30 -1.101852660719751E-012
                    31  1.560241359806131E-006
                    32   1.00105162805477     
                    33  9.298075544859745E-003
                    34  2.662361832157593E-003
                    35 -7.769375156774062E-003
                    36 -1.842644211881790E-012
                    37  8.177339770311273E-006
                    38 -4.118971280702361E-003
                    39  5.732302531392318E-012
                    40 -7.900569908976342E-006
                    41  9.816184266606366E-004
                    42  1.009840711580707E-011
                    43 -5.323078673102151E-005
                    44  4.532856661087411E-003
                    45  4.820937809634482E-004
                    46 -1.187146555945698E-012
                    47  4.662161038536720E-006
                    48 -4.348192107443390E-004
                    49  2.826826267954509E-012
                    50  6.047686456350881E-004
                    51 -5.706957169359238E-012
                    52 -5.830268623085118E-005
                    53  9.601931931888939E-004
                    54 -3.192800813480291E-012
                    55  3.914748762004773E-004
                    56  1.412054579569082E-012
                    57  4.544935929127485E-007
                    58 -2.100709711925426E-004
                    59 -5.184785528265577E-013
                    60  4.400331728662319E-012
                    61 -1.080281224145262E-007
                    62  7.210373743682450E-003
                    63 -2.071796183410638E-003
                    64 -2.750220610681497E-004
                    65  3.045842243928287E-003
                    66  9.683833283182895E-012
                    67  1.051007534299222E-004
                    68 -1.956998797122944E-005
                    69 -4.369876151664797E-012
                    70  5.855218602510322E-004
                    71  1.082850363229040E-005
                    72 -1.803425732247663E-011
                    73 -2.157175236469203E-003
                    74  1.138178795145966E-004
                    75 -1.608802927645054E-005
                    76 -1.380194467497521E-012
                    77  1.485428498819262E-005
                    78  2.867137390054332E-005
                    79 -2.287020068226838E-012
                    80  7.839228256743083E-004
                    81 -6.101843918532012E-013
                    82 -4.336941944474895E-004
                    83 -1.413489427699703E-006
                    84 -2.700802457645568E-013
                    85  7.539427183834481E-005
                    86 -2.523093804448513E-012
                    87  4.967069121988303E-005
                    88 -1.275076503210520E-004
                    89  6.994230966060576E-013
                    90  6.030805056838188E-013
                    91  5.027586897689188E-005
                    92  7.248283268650399E-003
                    93 -2.064035163519489E-003
                    94 -2.834352387306694E-004
                    95  3.101608334495274E-003
                    96  3.541255976184522E-012
                    97 -1.021510459280003E-004
                    98 -2.484127434025293E-005
                    99 -4.728531098689499E-012
                   100 -6.311772091812571E-004
                   101  1.245755443830840E-005
                   102  2.098895975266243E-012
                   103  2.113823764552765E-003
                   104  4.249967553430599E-005
                   105 -1.455473455140941E-005
                   106  1.013109779502899E-012
                   107 -1.264720112704239E-005
                   108  2.793261947714136E-005
                   109  2.961924964174972E-013
                   110  7.578160299231226E-004
                   111  1.935866304863374E-012
                   112  4.311245462079153E-004
                   113 -1.562580397238207E-005
                   114  6.508351354359537E-013
                   115  7.231756825273638E-005
                   116 -2.703737186070455E-012
                   117 -4.685632393678656E-005
                   118 -1.273773374945249E-004
                   119 -1.161036411156958E-012
                   120 -4.055569645433469E-013
                   121 -5.112641961824031E-005
                   122 -2.375155732165127E-004
                   123 -7.731464205444005E-004
                   124  2.229919309196191E-004
                   125 -9.889399636822697E-005
                   126 -6.011617913185383E-012
                   127 -2.108145178143602E-005
                   128 -2.449618051253137E-004
                   129  2.474930586659124E-012
                   130  1.011753449960781E-006
                   131  5.390054781405692E-004
                   132  2.638521405149753E-011
                   133  3.446290142700474E-004
                   134  7.985539413637672E-004
                   135 -1.328515246751392E-005
                   136 -1.145840146383152E-012
                   137  5.218040652460663E-005
                   138  1.355446388124239E-005
                   139  3.944171035511344E-012
                   140 -2.932793063647484E-004
                   141  5.328471299337394E-014
                   142 -2.210257280114373E-004
                   143 -1.452099667248475E-005
                   144  9.532394221022752E-013
                   145  2.053832385911660E-006
                   146  3.060792752753319E-012
                   147 -4.190056969176321E-005
                   148 -4.002633603514318E-005
                   149  3.270649557897616E-012
                   150 -5.367953053408640E-013
                   151 -5.815845085642706E-006
                   152 -2.342592071798665E-004
                   153 -7.602622863218742E-004
                   154  2.258318346641974E-004
                   155 -1.106501940489084E-004
                   156 -4.014524481014604E-012
                   157  1.783026078068560E-005
                   158 -2.467602761485238E-004
                   159  9.235778649392318E-012
                   160  1.409643652892948E-005