[Molden Format]
[Atoms] AU
  N     1    7     0.0000000000    0.0000000000   -4.2907334100        
  C     2    6     0.0000000000    0.0000000000   -1.7772236300        
  C     3    6     0.0000000000   -2.3389203600   -0.4111016300        
  C     4    6     0.0000000000    2.3389203600   -0.4111016300        
  C     5    6     0.0000000000   -2.2998668500    2.1639215300        
  C     6    6     0.0000000000    2.2998668500    2.1639215300        
  C     7    6     0.0000000000    0.0000000000    3.4755251800        
  H     8    1     0.0000000000   -1.6528040300   -5.3103747800        
  H     9    1     0.0000000000    1.6528040300   -5.3103747800        
  H    10    1     0.0000000000   -4.0745407300   -1.4447408500        
  H    11    1     0.0000000000    4.0745407300   -1.4447408500        
  H    12    1     0.0000000000   -4.0420632100    3.1963889500        
  H    13    1     0.0000000000    4.0420632100    3.1963889500        
  H    14    1     0.0000000000    0.0000000000    5.5020335600        
[5D]
[7F]
[GTO]
  1  0
   s    12 1.00
  0.114200D+05  0.172695D-04
  0.171200D+04  0.134411D-03
  0.389300D+03  0.694561D-03
  0.110000D+03  0.278531D-02
  0.355700D+02  0.863457D-02
  0.125400D+02  0.199805D-01
  0.464400D+01  0.262908D-01
  0.129300D+01 -0.243845D-01
  0.511800D+00 -0.924934D-01
  0.178700D+00 -0.339683D+00
  0.246240D-01  0.345111D+00
  0.112530D-01  0.752750D+00
   s    10 1.00
  0.114200D+05  0.523000D-03
  0.171200D+04  0.404500D-02
  0.389300D+03  0.207750D-01
  0.110000D+03  0.807269D-01
  0.355700D+02  0.233074D+00
  0.125400D+02  0.433501D+00
  0.464400D+01  0.347472D+00
  0.129300D+01  0.412620D-01
  0.511800D+00 -0.850799D-02
  0.178700D+00  0.238400D-02
   s    10 1.00
  0.114200D+05 -0.115000D-03
  0.171200D+04 -0.895000D-03
  0.389300D+03 -0.462400D-02
  0.110000D+03 -0.185280D-01
  0.355700D+02 -0.573390D-01
  0.125400D+02 -0.132076D+00
  0.464400D+01 -0.172510D+00
  0.129300D+01  0.151814D+00
  0.511800D+00  0.599944D+00
  0.178700D+00  0.387462D+00
   s     1 1.00
  0.129300D+01  0.100000D+01
   s     1 1.00
  0.178700D+00  0.100000D+01
   p     5 1.00
  0.266300D+02  0.146700D-01
  0.594800D+01  0.917640D-01
  0.174200D+01  0.298683D+00
  0.555000D+00  0.498487D+00
  0.172500D+00  0.337023D+00
   p     1 1.00
  0.174200D+01  0.100000D+01
   p     1 1.00
  0.555000D+00  0.100000D+01
   d     1 1.00
  0.165400D+01  0.100000D+01
   d     1 1.00
  0.469000D+00  0.100000D+01
   f     1 1.00
  0.109300D+01  0.100000D+01
  
  2  0
   s    10 1.00
  0.823600D+04  0.531000D-03
  0.123500D+04  0.410800D-02
  0.280800D+03  0.210870D-01
  0.792700D+02  0.818530D-01
  0.255900D+02  0.234817D+00
  0.899700D+01  0.434401D+00
  0.331900D+01  0.346129D+00
  0.905900D+00  0.393780D-01
  0.364300D+00 -0.898300D-02
  0.128500D+00  0.238500D-02
   s    10 1.00
  0.823600D+04 -0.113000D-03
  0.123500D+04 -0.878000D-03
  0.280800D+03 -0.454000D-02
  0.792700D+02 -0.181330D-01
  0.255900D+02 -0.557600D-01
  0.899700D+01 -0.126895D+00
  0.331900D+01 -0.170352D+00
  0.905900D+00  0.140382D+00
  0.364300D+00  0.598684D+00
  0.128500D+00  0.395389D+00
   s     1 1.00
  0.905900D+00  0.100000D+01
   s     1 1.00
  0.364300D+00  0.100000D+01
   p     5 1.00
  0.187100D+02  0.140310D-01
  0.413300D+01  0.868660D-01
  0.120000D+01  0.290216D+00
  0.382700D+00  0.501008D+00
  0.120900D+00  0.343406D+00
   p     1 1.00
  0.382700D+00  0.100000D+01
   p     1 1.00
  0.120900D+00  0.100000D+01
   d     1 1.00
  0.109700D+01  0.100000D+01
   d     1 1.00
  0.318000D+00  0.100000D+01
   f     1 1.00
  0.761000D+00  0.100000D+01
  
  3  0
   s    10 1.00
  0.823600D+04  0.531000D-03
  0.123500D+04  0.410800D-02
  0.280800D+03  0.210870D-01
  0.792700D+02  0.818530D-01
  0.255900D+02  0.234817D+00
  0.899700D+01  0.434401D+00
  0.331900D+01  0.346129D+00
  0.905900D+00  0.393780D-01
  0.364300D+00 -0.898300D-02
  0.128500D+00  0.238500D-02
   s    10 1.00
  0.823600D+04 -0.113000D-03
  0.123500D+04 -0.878000D-03
  0.280800D+03 -0.454000D-02
  0.792700D+02 -0.181330D-01
  0.255900D+02 -0.557600D-01
  0.899700D+01 -0.126895D+00
  0.331900D+01 -0.170352D+00
  0.905900D+00  0.140382D+00
  0.364300D+00  0.598684D+00
  0.128500D+00  0.395389D+00
   s     1 1.00
  0.905900D+00  0.100000D+01
   s     1 1.00
  0.364300D+00  0.100000D+01
   p     5 1.00
  0.187100D+02  0.140310D-01
  0.413300D+01  0.868660D-01
  0.120000D+01  0.290216D+00
  0.382700D+00  0.501008D+00
  0.120900D+00  0.343406D+00
   p     1 1.00
  0.382700D+00  0.100000D+01
   p     1 1.00
  0.120900D+00  0.100000D+01
   d     1 1.00
  0.109700D+01  0.100000D+01
   d     1 1.00
  0.318000D+00  0.100000D+01
   f     1 1.00
  0.761000D+00  0.100000D+01
  
  4  0
   s    10 1.00
  0.823600D+04  0.531000D-03
  0.123500D+04  0.410800D-02
  0.280800D+03  0.210870D-01
  0.792700D+02  0.818530D-01
  0.255900D+02  0.234817D+00
  0.899700D+01  0.434401D+00
  0.331900D+01  0.346129D+00
  0.905900D+00  0.393780D-01
  0.364300D+00 -0.898300D-02
  0.128500D+00  0.238500D-02
   s    10 1.00
  0.823600D+04 -0.113000D-03
  0.123500D+04 -0.878000D-03
  0.280800D+03 -0.454000D-02
  0.792700D+02 -0.181330D-01
  0.255900D+02 -0.557600D-01
  0.899700D+01 -0.126895D+00
  0.331900D+01 -0.170352D+00
  0.905900D+00  0.140382D+00
  0.364300D+00  0.598684D+00
  0.128500D+00  0.395389D+00
   s     1 1.00
  0.905900D+00  0.100000D+01
   s     1 1.00
  0.364300D+00  0.100000D+01
   p     5 1.00
  0.187100D+02  0.140310D-01
  0.413300D+01  0.868660D-01
  0.120000D+01  0.290216D+00
  0.382700D+00  0.501008D+00
  0.120900D+00  0.343406D+00
   p     1 1.00
  0.382700D+00  0.100000D+01
   p     1 1.00
  0.120900D+00  0.100000D+01
   d     1 1.00
  0.109700D+01  0.100000D+01
   d     1 1.00
  0.318000D+00  0.100000D+01
   f     1 1.00
  0.761000D+00  0.100000D+01
  
  5  0
   s    10 1.00
  0.823600D+04  0.531000D-03
  0.123500D+04  0.410800D-02
  0.280800D+03  0.210870D-01
  0.792700D+02  0.818530D-01
  0.255900D+02  0.234817D+00
  0.899700D+01  0.434401D+00
  0.331900D+01  0.346129D+00
  0.905900D+00  0.393780D-01
  0.364300D+00 -0.898300D-02
  0.128500D+00  0.238500D-02
   s    10 1.00
  0.823600D+04 -0.113000D-03
  0.123500D+04 -0.878000D-03
  0.280800D+03 -0.454000D-02
  0.792700D+02 -0.181330D-01
  0.255900D+02 -0.557600D-01
  0.899700D+01 -0.126895D+00
  0.331900D+01 -0.170352D+00
  0.905900D+00  0.140382D+00
  0.364300D+00  0.598684D+00
  0.128500D+00  0.395389D+00
   s     1 1.00
  0.905900D+00  0.100000D+01
   s     1 1.00
  0.364300D+00  0.100000D+01
   p     5 1.00
  0.187100D+02  0.140310D-01
  0.413300D+01  0.868660D-01
  0.120000D+01  0.290216D+00
  0.382700D+00  0.501008D+00
  0.120900D+00  0.343406D+00
   p     1 1.00
  0.382700D+00  0.100000D+01
   p     1 1.00
  0.120900D+00  0.100000D+01
   d     1 1.00
  0.109700D+01  0.100000D+01
   d     1 1.00
  0.318000D+00  0.100000D+01
   f     1 1.00
  0.761000D+00  0.100000D+01
  
  6  0
   s    10 1.00
  0.823600D+04  0.531000D-03
  0.123500D+04  0.410800D-02
  0.280800D+03  0.210870D-01
  0.792700D+02  0.818530D-01
  0.255900D+02  0.234817D+00
  0.899700D+01  0.434401D+00
  0.331900D+01  0.346129D+00
  0.905900D+00  0.393780D-01
  0.364300D+00 -0.898300D-02
  0.128500D+00  0.238500D-02
   s    10 1.00
  0.823600D+04 -0.113000D-03
  0.123500D+04 -0.878000D-03
  0.280800D+03 -0.454000D-02
  0.792700D+02 -0.181330D-01
  0.255900D+02 -0.557600D-01
  0.899700D+01 -0.126895D+00
  0.331900D+01 -0.170352D+00
  0.905900D+00  0.140382D+00
  0.364300D+00  0.598684D+00
  0.128500D+00  0.395389D+00
   s     1 1.00
  0.905900D+00  0.100000D+01
   s     1 1.00
  0.364300D+00  0.100000D+01
   p     5 1.00
  0.187100D+02  0.140310D-01
  0.413300D+01  0.868660D-01
  0.120000D+01  0.290216D+00
  0.382700D+00  0.501008D+00
  0.120900D+00  0.343406D+00
   p     1 1.00
  0.382700D+00  0.100000D+01
   p     1 1.00
  0.120900D+00  0.100000D+01
   d     1 1.00
  0.109700D+01  0.100000D+01
   d     1 1.00
  0.318000D+00  0.100000D+01
   f     1 1.00
  0.761000D+00  0.100000D+01
  
  7  0
   s    10 1.00
  0.823600D+04  0.531000D-03
  0.123500D+04  0.410800D-02
  0.280800D+03  0.210870D-01
  0.792700D+02  0.818530D-01
  0.255900D+02  0.234817D+00
  0.899700D+01  0.434401D+00
  0.331900D+01  0.346129D+00
  0.905900D+00  0.393780D-01
  0.364300D+00 -0.898300D-02
  0.128500D+00  0.238500D-02
   s    10 1.00
  0.823600D+04 -0.113000D-03
  0.123500D+04 -0.878000D-03
  0.280800D+03 -0.454000D-02
  0.792700D+02 -0.181330D-01
  0.255900D+02 -0.557600D-01
  0.899700D+01 -0.126895D+00
  0.331900D+01 -0.170352D+00
  0.905900D+00  0.140382D+00
  0.364300D+00  0.598684D+00
  0.128500D+00  0.395389D+00
   s     1 1.00
  0.905900D+00  0.100000D+01
   s     1 1.00
  0.364300D+00  0.100000D+01
   p     5 1.00
  0.187100D+02  0.140310D-01
  0.413300D+01  0.868660D-01
  0.120000D+01  0.290216D+00
  0.382700D+00  0.501008D+00
  0.120900D+00  0.343406D+00
   p     1 1.00
  0.382700D+00  0.100000D+01
   p     1 1.00
  0.120900D+00  0.100000D+01
   d     1 1.00
  0.109700D+01  0.100000D+01
   d     1 1.00
  0.318000D+00  0.100000D+01
   f     1 1.00
  0.761000D+00  0.100000D+01
  
  8  0
   s     4 1.00
  0.130100D+02  0.196850D-01
  0.196200D+01  0.137977D+00
  0.444600D+00  0.478148D+00
  0.122000D+00  0.501240D+00
   s     1 1.00
  0.122000D+00  0.100000D+01
   p     1 1.00
  0.727000D+00  0.100000D+01
  
  9  0
   s     4 1.00
  0.130100D+02  0.196850D-01
  0.196200D+01  0.137977D+00
  0.444600D+00  0.478148D+00
  0.122000D+00  0.501240D+00
   s     1 1.00
  0.122000D+00  0.100000D+01
   p     1 1.00
  0.727000D+00  0.100000D+01
  
 10  0
   s     4 1.00
  0.130100D+02  0.196850D-01
  0.196200D+01  0.137977D+00
  0.444600D+00  0.478148D+00
  0.122000D+00  0.501240D+00
   s     1 1.00
  0.122000D+00  0.100000D+01
   p     1 1.00
  0.727000D+00  0.100000D+01
  
 11  0
   s     4 1.00
  0.130100D+02  0.196850D-01
  0.196200D+01  0.137977D+00
  0.444600D+00  0.478148D+00
  0.122000D+00  0.501240D+00
   s     1 1.00
  0.122000D+00  0.100000D+01
   p     1 1.00
  0.727000D+00  0.100000D+01
  
 12  0
   s     4 1.00
  0.130100D+02  0.196850D-01
  0.196200D+01  0.137977D+00
  0.444600D+00  0.478148D+00
  0.122000D+00  0.501240D+00
   s     1 1.00
  0.122000D+00  0.100000D+01
   p     1 1.00
  0.727000D+00  0.100000D+01
  
 13  0
   s     4 1.00
  0.130100D+02  0.196850D-01
  0.196200D+01  0.137977D+00
  0.444600D+00  0.478148D+00
  0.122000D+00  0.501240D+00
   s     1 1.00
  0.122000D+00  0.100000D+01
   p     1 1.00
  0.727000D+00  0.100000D+01
  
 14  0
   s     4 1.00
  0.130100D+02  0.196850D-01
  0.196200D+01  0.137977D+00
  0.444600D+00  0.478148D+00
  0.122000D+00  0.501240D+00
   s     1 1.00
  0.122000D+00  0.100000D+01
   p     1 1.00
  0.727000D+00  0.100000D+01
  
[MO]
 Sym= __1_A1_
 Ene=  0.000000000000000E+000
 Spin= Alpha
 Occup=    2.00000000000000     
                     1  4.178983518266661E-005
                     2  0.998070794165863     
                     3  9.271349995916793E-003
                     4  2.061389329781285E-003
                     5  1.526381756454559E-003
                     6  0.000000000000000E+000
                     7  0.000000000000000E+000
                     8  4.485093219757615E-003
                     9  0.000000000000000E+000
                    10  0.000000000000000E+000
                    11 -1.185955953578398E-004
                    12  0.000000000000000E+000
                    13  0.000000000000000E+000
                    14 -7.813438454058840E-005
                    15  2.694165395225518E-004
                    16  0.000000000000000E+000
                    17  0.000000000000000E+000
                    18 -1.181495347322443E-004
                    19  0.000000000000000E+000
                    20  1.644229103973428E-004
                    21  0.000000000000000E+000
                    22  0.000000000000000E+000
                    23  5.836970892546064E-004
                    24  0.000000000000000E+000
                    25 -1.898166151741319E-004
                    26  0.000000000000000E+000
                    27  0.000000000000000E+000
                    28  9.192019859870884E-005
                    29  0.000000000000000E+000
                    30  0.000000000000000E+000
                    31  0.000000000000000E+000
                    32 -3.712432866231135E-004
                    33  2.713625672740226E-003
                    34  1.460892657129054E-004
                    35 -2.438210014401887E-004
                    36  0.000000000000000E+000
                    37  0.000000000000000E+000
                    38 -7.114261673569480E-003
                    39  0.000000000000000E+000
                    40  0.000000000000000E+000
                    41  3.886477298501544E-004
                    42  0.000000000000000E+000
                    43  0.000000000000000E+000
                    44  4.409761661347198E-003
                    45  3.493330553626464E-004
                    46  0.000000000000000E+000
                    47  0.000000000000000E+000
                    48  1.387015939786923E-004
                    49  0.000000000000000E+000
                    50  4.432180790497031E-005
                    51  0.000000000000000E+000
                    52  0.000000000000000E+000
                    53 -4.611007713388390E-004
                    54  0.000000000000000E+000
                    55 -1.116052689311769E-004
                    56  0.000000000000000E+000
                    57  0.000000000000000E+000
                    58  7.828227200046431E-005
                    59  0.000000000000000E+000
                    60  0.000000000000000E+000
                    61  0.000000000000000E+000
                    62 -2.114047373961296E-004
                    63 -1.682017811725030E-003
                    64  6.044802780269360E-005
                    65  5.544112345241655E-004
                    66  0.000000000000000E+000
                    67 -8.410105116016989E-004
                    68  1.015333957828347E-003
                    69  0.000000000000000E+000
                    70 -3.603960348783417E-005
                    71  6.249569161962008E-004
                    72  0.000000000000000E+000
                    73 -5.632804425089265E-004
                    74 -1.312185291028155E-004
                    75  9.261879955796304E-005
                    76  0.000000000000000E+000
                    77 -8.434905769434790E-006
                    78  4.207316694822494E-005
                    79  0.000000000000000E+000
                    80 -2.520960813835319E-005
                    81  0.000000000000000E+000
                    82  2.127083730236868E-004
                    83 -3.127739620846026E-005
                    84  0.000000000000000E+000
                    85 -9.344272708972082E-005
                    86  0.000000000000000E+000
                    87 -2.993382589776478E-005
                    88  1.999195724724291E-005
                    89  0.000000000000000E+000
                    90  0.000000000000000E+000
                    91  1.278209736804140E-005
                    92 -2.114047373961296E-004
                    93 -1.682017811725030E-003
                    94  6.044802780269360E-005
                    95  5.544112345241655E-004
                    96  0.000000000000000E+000
                    97  8.410105116016989E-004
                    98  1.015333957828347E-003
                    99  0.000000000000000E+000
                   100  3.603960348783417E-005
                   101  6.249569161962008E-004
                   102  0.000000000000000E+000
                   103  5.632804425089265E-004
                   104 -1.312185291028155E-004
                   105  9.261879955796304E-005
                   106  0.000000000000000E+000
                   107  8.434905769434790E-006
                   108  4.207316694822494E-005
                   109  0.000000000000000E+000
                   110 -2.520960813835319E-005
                   111  0.000000000000000E+000
                   112 -2.127083730236868E-004
                   113 -3.127739620846026E-005
                   114  0.000000000000000E+000
                   115 -9.344272708972082E-005
                   116  0.000000000000000E+000
                   117  2.993382589776478E-005
                   118  1.999195724724291E-005
                   119  0.000000000000000E+000
                   120  0.000000000000000E+000
                   121 -1.278209736804140E-005
                   122 -1.476122704596081E-004
                   123  7.646247214855377E-006
                   124  1.110646253871419E-004
                   125  1.274918349374974E-004
                   126  0.000000000000000E+000
                   127  4.131042611141089E-005
                   128 -7.999988637040345E-004
                   129  0.000000000000000E+000
                   130  2.011053056778252E-005
                   131  3.514698493602342E-004
                   132  0.000000000000000E+000
                   133 -1.721515312977105E-004
                   134  7.082054710307936E-004
                   135 -1.739658879772370E-005
                   136  0.000000000000000E+000
                   137  1.807616428558181E-006
                   138  1.523618279047164E-006
                   139  0.000000000000000E+000
                   140 -1.892657912913537E-004
                   141  0.000000000000000E+000
                   142  1.698045399888934E-004
                   143  1.261380538281824E-005
                   144  0.000000000000000E+000
                   145 -3.933615062171130E-005
                   146  0.000000000000000E+000
                   147  1.401193726641314E-006
                   148 -9.676940278833397E-006
                   149  0.000000000000000E+000
                   150  0.000000000000000E+000
                   151 -3.645849515982424E-006
                   152 -1.476122704596081E-004
                   153  7.646247214855377E-006
                   154  1.110646253871419E-004
                   155  1.274918349374974E-004
                   156  0.000000000000000E+000
                   157 -4.131042611141089E-005
                   158 -7.999988637040345E-004
                   159  0.000000000000000E+000
                   160 -2.011053056778252E-005
                   161  3.514698493602342E-004
                   162  0.000000000000000E+000
                   163  1.721515312977105E-004
                   164  7.082054710307936E-004
                   165 -1.739658879772370E-005
                   166  0.000000000000000E+000
                   167 -1.807616428558181E-006
                   168  1.523618279047164E-006
                   169  0.000000000000000E+000
                   170 -1.892657912913537E-004
                   171  0.000000000000000E+000
                   172 -1.698045399888934E-004
                   173  1.261380538281824E-005
                   174  0.000000000000000E+000
                   175 -3.933615062171130E-005
                   176  0.000000000000000E+000
                   177 -1.401193726641314E-006
                   178 -9.676940278833397E-006
                   179  0.000000000000000E+000
                   180  0.000000000000000E+000
                   181  3.645849515982424E-006
                   182 -1.217381893775441E-004
                   183 -3.265576456213837E-004
                   184  3.213062493122300E-005
                   185  1.475638000899917E-004
                   186  0.000000000000000E+000
                   187  0.000000000000000E+000
                   188 -4.065586362348976E-005
                   189  0.000000000000000E+000
                   190  0.000000000000000E+000
                   191  1.791401462455012E-005
                   192  0.000000000000000E+000
                   193  0.000000000000000E+000
                   194  5.525102526726510E-005
                   195  1.922525845137664E-005
                   196  0.000000000000000E+000
                   197  0.000000000000000E+000
                   198  9.136194932272461E-006
                   199  0.000000000000000E+000
                   200  5.895585150820052E-005
                   201  0.000000000000000E+000
                   202  0.000000000000000E+000
                   203  4.971059742763820E-005
                   204  0.000000000000000E+000
                   205 -1.167781611694804E-005
                   206  0.000000000000000E+000
                   207  0.000000000000000E+000
                   208  3.213852743548472E-006
                   209  0.000000000000000E+000
                   210  0.000000000000000E+000
                   211  0.000000000000000E+000
                   212  3.855732501983862E-003
                   213 -2.325769101797236E-003
                   214  0.000000000000000E+000
                   215  4.677854377639845E-004
                   216  3.805953864694944E-004
                   217  3.855732501983862E-003
                   218 -2.325769101797236E-003
                   219  0.000000000000000E+000
                   220 -4.677854377639845E-004
                   221  3.805953864694944E-004
                   222 -6.698481461915184E-004
                   223 -1.199281345364002E-004
                   224  0.000000000000000E+000
                   225 -1.697895218274454E-005
                   226 -4.528509771253392E-005
                   227 -6.698481461915184E-004
                   228 -1.199281345364002E-004
                   229  0.000000000000000E+000
                   230  1.697895218274454E-005
                   231 -4.528509771253392E-005
                   232 -2.338550243991692E-004
                   233 -4.093216002616000E-004
                   234  0.000000000000000E+000
                   235 -5.630292809616923E-006
                   236  5.925451614289743E-006
                   237 -2.338550243991692E-004
                   238 -4.093216002616000E-004
                   239  0.000000000000000E+000
                   240  5.630292809616923E-006
                   241  5.925451614289743E-006
                   242  6.911931305142025E-005
                   243 -1.313025718330582E-004
                   244  0.000000000000000E+000
                   245  0.000000000000000E+000
                   246  1.439084430153159E-005
 Sym= __2_A1_
 Ene=  0.000000000000000E+000
 Spin= Alpha
 Occup=    2.00000000000000     
                     1 -4.667610487051378E-005
                     2 -2.158598188576850E-004
                     3  2.293790456987855E-003
                     4  1.018612886797275E-004
                     5  1.263802964144110E-003
                     6  0.000000000000000E+000
                     7  0.000000000000000E+000
                     8  3.012074636647201E-003
                     9  0.000000000000000E+000
                    10  0.000000000000000E+000
                    11 -4.988610169233261E-005
                    12  0.000000000000000E+000
                    13  0.000000000000000E+000
                    14 -5.489567944047855E-004
                    15  4.269150930409468E-005
                    16  0.000000000000000E+000
                    17  0.000000000000000E+000
                    18  6.537701689795696E-005
                    19  0.000000000000000E+000
                    20 -2.856546191195158E-004
                    21  0.000000000000000E+000
                    22  0.000000000000000E+000
                    23 -3.371088227970660E-004
                    24  0.000000000000000E+000
                    25  1.801029731667157E-004
                    26  0.000000000000000E+000
                    27  0.000000000000000E+000
                    28 -5.842157609810858E-007
                    29  0.000000000000000E+000
                    30  0.000000000000000E+000
                    31  0.000000000000000E+000
                    32   1.00106049089319     
                    33  9.290500171796792E-003
                    34  2.631898838236001E-003
                    35 -7.762596725121518E-003
                    36  0.000000000000000E+000
                    37  0.000000000000000E+000
                    38 -4.151442307559515E-003
                    39  0.000000000000000E+000
                    40  0.000000000000000E+000
                    41  1.004291626259425E-003
                    42  0.000000000000000E+000
                    43  0.000000000000000E+000
                    44  4.449255964513770E-003
                    45  4.767312887490564E-004
                    46  0.000000000000000E+000
                    47  0.000000000000000E+000
                    48 -4.313148690790028E-004
                    49  0.000000000000000E+000
                    50  5.827092916425791E-004
                    51  0.000000000000000E+000
                    52  0.000000000000000E+000
                    53  9.397610166500056E-004
                    54  0.000000000000000E+000
                    55  3.869426064954379E-004
                    56  0.000000000000000E+000
                    57  0.000000000000000E+000
                    58 -2.063225131685692E-004
                    59  0.000000000000000E+000
                    60  0.000000000000000E+000
                    61  0.000000000000000E+000
                    62  7.187635315508478E-003
                    63 -2.058666416342446E-003
                    64 -2.763256347428348E-004
                    65  3.040254151546871E-003
                    66  0.000000000000000E+000
                    67  9.398416839319606E-005
                    68 -7.575590832315313E-006
                    69  0.000000000000000E+000
                    70  6.012815711112197E-004
                    71  1.681502663134733E-005
                    72  0.000000000000000E+000
                    73 -2.098436572905990E-003
                    74  9.605148285844785E-005
                    75 -1.502766482224603E-005
                    76  0.000000000000000E+000
                    77  1.368191218163621E-005
                    78  2.896902915522912E-005
                    79  0.000000000000000E+000
                    80  7.635487046612541E-004
                    81  0.000000000000000E+000
                    82 -4.229209092873767E-004
                    83 -1.128760619102923E-005
                    84  0.000000000000000E+000
                    85  7.339029314086152E-005
                    86  0.000000000000000E+000
                    87  4.622591104110092E-005
                    88 -1.272120014763506E-004
                    89  0.000000000000000E+000
                    90  0.000000000000000E+000
                    91  5.017672303432823E-005
                    92  7.187635315508478E-003
                    93 -2.058666416342446E-003
                    94 -2.763256347428348E-004
                    95  3.040254151546871E-003
                    96  0.000000000000000E+000
                    97 -9.398416839319606E-005
                    98 -7.575590832315313E-006
                    99  0.000000000000000E+000
                   100 -6.012815711112197E-004
                   101  1.681502663134733E-005
                   102  0.000000000000000E+000
                   103  2.098436572905990E-003
                   104  9.605148285844785E-005
                   105 -1.502766482224603E-005
                   106  0.000000000000000E+000
                   107 -1.368191218163621E-005
                   108  2.896902915522912E-005
                   109  0.000000000000000E+000
                   110  7.635487046612541E-004
                   111  0.000000000000000E+000
                   112  4.229209092873767E-004
                   113 -1.128760619102923E-005
                   114  0.000000000000000E+000
                   115  7.339029314086152E-005
                   116  0.000000000000000E+000
                   117 -4.622591104110092E-005
                   118 -1.272120014763506E-004
                   119  0.000000000000000E+000
                   120  0.000000000000000E+000
                   121 -5.017672303432823E-005
                   122 -2.333685289864474E-004
                   123 -7.541453751878728E-004
                   124  2.243376980389877E-004
                   125 -1.093163875035111E-004
                   126  0.000000000000000E+000
                   127 -1.799571175075052E-005
                   128 -2.559235304744254E-004
                   129  0.000000000000000E+000
                   130 -9.613869624991879E-006
                   131  5.352141660778754E-004
                   132  0.000000000000000E+000
                   133  3.288166615297736E-004
                   134  7.515329044255334E-004
                   135 -1.388737701107405E-005
                   136  0.000000000000000E+000
                   137  5.167049657965171E-005
                   138  1.389960070168717E-005
                   139  0.000000000000000E+000
                   140 -2.891132517292455E-004
                   141  0.000000000000000E+000
                   142 -2.182161117304466E-004
                   143 -1.301543140179967E-005
                   144  0.000000000000000E+000
                   145  1.323047478074447E-006
                   146  0.000000000000000E+000
                   147 -4.127773157464862E-005
                   148 -3.985856987990778E-005
                   149  0.000000000000000E+000
                   150  0.000000000000000E+000
                   151 -5.524035765481849E-006
                   152 -2.333685289864474E-004
                   153 -7.541453751878728E-004
                   154  2.243376980389877E-004
                   155 -1.093163875035111E-004
                   156  0.000000000000000E+000
                   157  1.799571175075052E-005
                   158 -2.559235304744254E-004
                   159  0.000000000000000E+000
                   160  9.613869624991879E-006