[Molden Format]
[Atoms] AU
  N     1    7     0.0000000000    0.0000000000   -4.2907334100        
  C     2    6     0.0000000000    0.0000000000   -1.7772236300        
  C     3    6     0.0000000000   -2.3389203600   -0.4111016300        
  C     4    6     0.0000000000    2.3389203600   -0.4111016300        
  C     5    6     0.0000000000   -2.2998668500    2.1639215300        
  C     6    6     0.0000000000    2.2998668500    2.1639215300        
  C     7    6     0.0000000000    0.0000000000    3.4755251800        
  H     8    1     0.0000000000   -1.6528040300   -5.3103747800        
  H     9    1     0.0000000000    1.6528040300   -5.3103747800        
  H    10    1     0.0000000000   -4.0745407300   -1.4447408500        
  H    11    1     0.0000000000    4.0745407300   -1.4447408500        
  H    12    1     0.0000000000   -4.0420632100    3.1963889500        
  H    13    1     0.0000000000    4.0420632100    3.1963889500        
  H    14    1     0.0000000000    0.0000000000    5.5020335600        
[5D]
[7F]
[GTO]
  1  0
   s    12 1.00
  0.114200D+05  0.172695D-04
  0.171200D+04  0.134411D-03
  0.389300D+03  0.694561D-03
  0.110000D+03  0.278531D-02
  0.355700D+02  0.863457D-02
  0.125400D+02  0.199805D-01
  0.464400D+01  0.262908D-01
  0.129300D+01 -0.243845D-01
  0.511800D+00 -0.924934D-01
  0.178700D+00 -0.339683D+00
  0.246240D-01  0.345111D+00
  0.112530D-01  0.752750D+00
   s    10 1.00
  0.114200D+05  0.523000D-03
  0.171200D+04  0.404500D-02
  0.389300D+03  0.207750D-01
  0.110000D+03  0.807269D-01
  0.355700D+02  0.233074D+00
  0.125400D+02  0.433501D+00
  0.464400D+01  0.347472D+00
  0.129300D+01  0.412620D-01
  0.511800D+00 -0.850799D-02
  0.178700D+00  0.238400D-02
   s    10 1.00
  0.114200D+05 -0.115000D-03
  0.171200D+04 -0.895000D-03
  0.389300D+03 -0.462400D-02
  0.110000D+03 -0.185280D-01
  0.355700D+02 -0.573390D-01
  0.125400D+02 -0.132076D+00
  0.464400D+01 -0.172510D+00
  0.129300D+01  0.151814D+00
  0.511800D+00  0.599944D+00
  0.178700D+00  0.387462D+00
   s     1 1.00
  0.129300D+01  0.100000D+01
   s     1 1.00
  0.178700D+00  0.100000D+01
   p     5 1.00
  0.266300D+02  0.146700D-01
  0.594800D+01  0.917640D-01
  0.174200D+01  0.298683D+00
  0.555000D+00  0.498487D+00
  0.172500D+00  0.337023D+00
   p     1 1.00
  0.174200D+01  0.100000D+01
   p     1 1.00
  0.555000D+00  0.100000D+01
   d     1 1.00
  0.165400D+01  0.100000D+01
   d     1 1.00
  0.469000D+00  0.100000D+01
   f     1 1.00
  0.109300D+01  0.100000D+01
  
  2  0
   s    10 1.00
  0.823600D+04  0.531000D-03
  0.123500D+04  0.410800D-02
  0.280800D+03  0.210870D-01
  0.792700D+02  0.818530D-01
  0.255900D+02  0.234817D+00
  0.899700D+01  0.434401D+00
  0.331900D+01  0.346129D+00
  0.905900D+00  0.393780D-01
  0.364300D+00 -0.898300D-02
  0.128500D+00  0.238500D-02
   s    10 1.00
  0.823600D+04 -0.113000D-03
  0.123500D+04 -0.878000D-03
  0.280800D+03 -0.454000D-02
  0.792700D+02 -0.181330D-01
  0.255900D+02 -0.557600D-01
  0.899700D+01 -0.126895D+00
  0.331900D+01 -0.170352D+00
  0.905900D+00  0.140382D+00
  0.364300D+00  0.598684D+00
  0.128500D+00  0.395389D+00
   s     1 1.00
  0.905900D+00  0.100000D+01
   s     1 1.00
  0.364300D+00  0.100000D+01
   p     5 1.00
  0.187100D+02  0.140310D-01
  0.413300D+01  0.868660D-01
  0.120000D+01  0.290216D+00
  0.382700D+00  0.501008D+00
  0.120900D+00  0.343406D+00
   p     1 1.00
  0.382700D+00  0.100000D+01
   p     1 1.00
  0.120900D+00  0.100000D+01
   d     1 1.00
  0.109700D+01  0.100000D+01
   d     1 1.00
  0.318000D+00  0.100000D+01
   f     1 1.00
  0.761000D+00  0.100000D+01
  
  3  0
   s    10 1.00
  0.823600D+04  0.531000D-03
  0.123500D+04  0.410800D-02
  0.280800D+03  0.210870D-01
  0.792700D+02  0.818530D-01
  0.255900D+02  0.234817D+00
  0.899700D+01  0.434401D+00
  0.331900D+01  0.346129D+00
  0.905900D+00  0.393780D-01
  0.364300D+00 -0.898300D-02
  0.128500D+00  0.238500D-02
   s    10 1.00
  0.823600D+04 -0.113000D-03
  0.123500D+04 -0.878000D-03
  0.280800D+03 -0.454000D-02
  0.792700D+02 -0.181330D-01
  0.255900D+02 -0.557600D-01
  0.899700D+01 -0.126895D+00
  0.331900D+01 -0.170352D+00
  0.905900D+00  0.140382D+00
  0.364300D+00  0.598684D+00
  0.128500D+00  0.395389D+00
   s     1 1.00
  0.905900D+00  0.100000D+01
   s     1 1.00
  0.364300D+00  0.100000D+01
   p     5 1.00
  0.187100D+02  0.140310D-01
  0.413300D+01  0.868660D-01
  0.120000D+01  0.290216D+00
  0.382700D+00  0.501008D+00
  0.120900D+00  0.343406D+00
   p     1 1.00
  0.382700D+00  0.100000D+01
   p     1 1.00
  0.120900D+00  0.100000D+01
   d     1 1.00
  0.109700D+01  0.100000D+01
   d     1 1.00
  0.318000D+00  0.100000D+01
   f     1 1.00
  0.761000D+00  0.100000D+01
  
  4  0
   s    10 1.00
  0.823600D+04  0.531000D-03
  0.123500D+04  0.410800D-02
  0.280800D+03  0.210870D-01
  0.792700D+02  0.818530D-01
  0.255900D+02  0.234817D+00
  0.899700D+01  0.434401D+00
  0.331900D+01  0.346129D+00
  0.905900D+00  0.393780D-01
  0.364300D+00 -0.898300D-02
  0.128500D+00  0.238500D-02
   s    10 1.00
  0.823600D+04 -0.113000D-03
  0.123500D+04 -0.878000D-03
  0.280800D+03 -0.454000D-02
  0.792700D+02 -0.181330D-01
  0.255900D+02 -0.557600D-01
  0.899700D+01 -0.126895D+00
  0.331900D+01 -0.170352D+00
  0.905900D+00  0.140382D+00
  0.364300D+00  0.598684D+00
  0.128500D+00  0.395389D+00
   s     1 1.00
  0.905900D+00  0.100000D+01
   s     1 1.00
  0.364300D+00  0.100000D+01
   p     5 1.00
  0.187100D+02  0.140310D-01
  0.413300D+01  0.868660D-01
  0.120000D+01  0.290216D+00
  0.382700D+00  0.501008D+00
  0.120900D+00  0.343406D+00
   p     1 1.00
  0.382700D+00  0.100000D+01
   p     1 1.00
  0.120900D+00  0.100000D+01
   d     1 1.00
  0.109700D+01  0.100000D+01
   d     1 1.00
  0.318000D+00  0.100000D+01
   f     1 1.00
  0.761000D+00  0.100000D+01
  
  5  0
   s    10 1.00
  0.823600D+04  0.531000D-03
  0.123500D+04  0.410800D-02
  0.280800D+03  0.210870D-01
  0.792700D+02  0.818530D-01
  0.255900D+02  0.234817D+00
  0.899700D+01  0.434401D+00
  0.331900D+01  0.346129D+00
  0.905900D+00  0.393780D-01
  0.364300D+00 -0.898300D-02
  0.128500D+00  0.238500D-02
   s    10 1.00
  0.823600D+04 -0.113000D-03
  0.123500D+04 -0.878000D-03
  0.280800D+03 -0.454000D-02
  0.792700D+02 -0.181330D-01
  0.255900D+02 -0.557600D-01
  0.899700D+01 -0.126895D+00
  0.331900D+01 -0.170352D+00
  0.905900D+00  0.140382D+00
  0.364300D+00  0.598684D+00
  0.128500D+00  0.395389D+00
   s     1 1.00
  0.905900D+00  0.100000D+01
   s     1 1.00
  0.364300D+00  0.100000D+01
   p     5 1.00
  0.187100D+02  0.140310D-01
  0.413300D+01  0.868660D-01
  0.120000D+01  0.290216D+00
  0.382700D+00  0.501008D+00
  0.120900D+00  0.343406D+00
   p     1 1.00
  0.382700D+00  0.100000D+01
   p     1 1.00
  0.120900D+00  0.100000D+01
   d     1 1.00
  0.109700D+01  0.100000D+01
   d     1 1.00
  0.318000D+00  0.100000D+01
   f     1 1.00
  0.761000D+00  0.100000D+01
  
  6  0
   s    10 1.00
  0.823600D+04  0.531000D-03
  0.123500D+04  0.410800D-02
  0.280800D+03  0.210870D-01
  0.792700D+02  0.818530D-01
  0.255900D+02  0.234817D+00
  0.899700D+01  0.434401D+00
  0.331900D+01  0.346129D+00
  0.905900D+00  0.393780D-01
  0.364300D+00 -0.898300D-02
  0.128500D+00  0.238500D-02
   s    10 1.00
  0.823600D+04 -0.113000D-03
  0.123500D+04 -0.878000D-03
  0.280800D+03 -0.454000D-02
  0.792700D+02 -0.181330D-01
  0.255900D+02 -0.557600D-01
  0.899700D+01 -0.126895D+00
  0.331900D+01 -0.170352D+00
  0.905900D+00  0.140382D+00
  0.364300D+00  0.598684D+00
  0.128500D+00  0.395389D+00
   s     1 1.00
  0.905900D+00  0.100000D+01
   s     1 1.00
  0.364300D+00  0.100000D+01
   p     5 1.00
  0.187100D+02  0.140310D-01
  0.413300D+01  0.868660D-01
  0.120000D+01  0.290216D+00
  0.382700D+00  0.501008D+00
  0.120900D+00  0.343406D+00
   p     1 1.00
  0.382700D+00  0.100000D+01
   p     1 1.00
  0.120900D+00  0.100000D+01
   d     1 1.00
  0.109700D+01  0.100000D+01
   d     1 1.00
  0.318000D+00  0.100000D+01
   f     1 1.00
  0.761000D+00  0.100000D+01
  
  7  0
   s    10 1.00
  0.823600D+04  0.531000D-03
  0.123500D+04  0.410800D-02
  0.280800D+03  0.210870D-01
  0.792700D+02  0.818530D-01
  0.255900D+02  0.234817D+00
  0.899700D+01  0.434401D+00
  0.331900D+01  0.346129D+00
  0.905900D+00  0.393780D-01
  0.364300D+00 -0.898300D-02
  0.128500D+00  0.238500D-02
   s    10 1.00
  0.823600D+04 -0.113000D-03
  0.123500D+04 -0.878000D-03
  0.280800D+03 -0.454000D-02
  0.792700D+02 -0.181330D-01
  0.255900D+02 -0.557600D-01
  0.899700D+01 -0.126895D+00
  0.331900D+01 -0.170352D+00
  0.905900D+00  0.140382D+00
  0.364300D+00  0.598684D+00
  0.128500D+00  0.395389D+00
   s     1 1.00
  0.905900D+00  0.100000D+01
   s     1 1.00
  0.364300D+00  0.100000D+01
   p     5 1.00
  0.187100D+02  0.140310D-01
  0.413300D+01  0.868660D-01
  0.120000D+01  0.290216D+00
  0.382700D+00  0.501008D+00
  0.120900D+00  0.343406D+00
   p     1 1.00
  0.382700D+00  0.100000D+01
   p     1 1.00
  0.120900D+00  0.100000D+01
   d     1 1.00
  0.109700D+01  0.100000D+01
   d     1 1.00
  0.318000D+00  0.100000D+01
   f     1 1.00
  0.761000D+00  0.100000D+01
  
  8  0
   s     4 1.00
  0.130100D+02  0.196850D-01
  0.196200D+01  0.137977D+00
  0.444600D+00  0.478148D+00
  0.122000D+00  0.501240D+00
   s     1 1.00
  0.122000D+00  0.100000D+01
   p     1 1.00
  0.727000D+00  0.100000D+01
  
  9  0
   s     4 1.00
  0.130100D+02  0.196850D-01
  0.196200D+01  0.137977D+00
  0.444600D+00  0.478148D+00
  0.122000D+00  0.501240D+00
   s     1 1.00
  0.122000D+00  0.100000D+01
   p     1 1.00
  0.727000D+00  0.100000D+01
  
 10  0
   s     4 1.00
  0.130100D+02  0.196850D-01
  0.196200D+01  0.137977D+00
  0.444600D+00  0.478148D+00
  0.122000D+00  0.501240D+00
   s     1 1.00
  0.122000D+00  0.100000D+01
   p     1 1.00
  0.727000D+00  0.100000D+01
  
 11  0
   s     4 1.00
  0.130100D+02  0.196850D-01
  0.196200D+01  0.137977D+00
  0.444600D+00  0.478148D+00
  0.122000D+00  0.501240D+00
   s     1 1.00
  0.122000D+00  0.100000D+01
   p     1 1.00
  0.727000D+00  0.100000D+01
  
 12  0
   s     4 1.00
  0.130100D+02  0.196850D-01
  0.196200D+01  0.137977D+00
  0.444600D+00  0.478148D+00
  0.122000D+00  0.501240D+00
   s     1 1.00
  0.122000D+00  0.100000D+01
   p     1 1.00
  0.727000D+00  0.100000D+01
  
 13  0
   s     4 1.00
  0.130100D+02  0.196850D-01
  0.196200D+01  0.137977D+00
  0.444600D+00  0.478148D+00
  0.122000D+00  0.501240D+00
   s     1 1.00
  0.122000D+00  0.100000D+01
   p     1 1.00
  0.727000D+00  0.100000D+01
  
 14  0
   s     4 1.00
  0.130100D+02  0.196850D-01
  0.196200D+01  0.137977D+00
  0.444600D+00  0.478148D+00
  0.122000D+00  0.501240D+00
   s     1 1.00
  0.122000D+00  0.100000D+01
   p     1 1.00
  0.727000D+00  0.100000D+01
  
[MO]
 Sym= __1_A1_
 Ene=   1.00000000000000     
 Spin= Alpha
 Occup=    1.00000000000000     
                     1  4.178985252147431E-005
                     2  0.998070794060027     
                     3  9.271350822716374E-003
                     4  2.061389293534796E-003
                     5  1.526380555653288E-003
                     6  0.000000000000000E+000
                     7  0.000000000000000E+000
                     8  4.485093437160407E-003
                     9  0.000000000000000E+000
                    10  0.000000000000000E+000
                    11 -1.185954898092937E-004
                    12  0.000000000000000E+000
                    13  0.000000000000000E+000
                    14 -7.813439092878332E-005
                    15  2.694165638114081E-004
                    16  0.000000000000000E+000
                    17  0.000000000000000E+000
                    18 -1.181495500603458E-004
                    19  0.000000000000000E+000
                    20  1.644230743722987E-004
                    21  0.000000000000000E+000
                    22  0.000000000000000E+000
                    23  5.836971934779378E-004
                    24  0.000000000000000E+000
                    25 -1.898166263000868E-004
                    26  0.000000000000000E+000
                    27  0.000000000000000E+000
                    28  9.192017422273560E-005
                    29  0.000000000000000E+000
                    30  0.000000000000000E+000
                    31  0.000000000000000E+000
                    32 -3.712440935101821E-004
                    33  2.713643387800722E-003
                    34  1.460890229058316E-004
                    35 -2.438213463314779E-004
                    36  0.000000000000000E+000
                    37  0.000000000000000E+000
                    38 -7.114254214146330E-003
                    39  0.000000000000000E+000
                    40  0.000000000000000E+000
                    41  3.886474793736613E-004
                    42  0.000000000000000E+000
                    43  0.000000000000000E+000
                    44  4.409761281541579E-003
                    45  3.493329937086213E-004
                    46  0.000000000000000E+000
                    47  0.000000000000000E+000
                    48  1.387012283003348E-004
                    49  0.000000000000000E+000
                    50  4.432182667227145E-005
                    51  0.000000000000000E+000
                    52  0.000000000000000E+000
                    53 -4.611013722162238E-004
                    54  0.000000000000000E+000
                    55 -1.116050583980771E-004
                    56  0.000000000000000E+000
                    57  0.000000000000000E+000
                    58  7.828202867797304E-005
                    59  0.000000000000000E+000
                    60  0.000000000000000E+000
                    61  0.000000000000000E+000
                    62 -2.114050879600683E-004
                    63 -1.682014554088339E-003
                    64  6.044799066206956E-005
                    65  5.544114552072706E-004
                    66  0.000000000000000E+000
                    67 -8.410020953134084E-004
                    68  1.015329697133552E-003
                    69  0.000000000000000E+000
                    70 -3.604025952600829E-005
                    71  6.249576470714203E-004
                    72  0.000000000000000E+000
                    73 -5.632837041093771E-004
                    74 -1.312168560957397E-004
                    75  9.261866109499075E-005
                    76  0.000000000000000E+000
                    77 -8.435150862011292E-006
                    78  4.207298116050456E-005
                    79  0.000000000000000E+000
                    80 -2.520961395642518E-005
                    81  0.000000000000000E+000
                    82  2.127082882706462E-004
                    83 -3.127763890764106E-005
                    84  0.000000000000000E+000
                    85 -9.344279138602025E-005
                    86  0.000000000000000E+000
                    87 -2.993383476764238E-005
                    88  1.999203913484323E-005
                    89  0.000000000000000E+000
                    90  0.000000000000000E+000
                    91  1.278202683922226E-005
                    92 -2.114050879600683E-004
                    93 -1.682014554088339E-003
                    94  6.044799066206956E-005
                    95  5.544114552072706E-004
                    96  0.000000000000000E+000
                    97  8.410020953134084E-004
                    98  1.015329697133552E-003
                    99  0.000000000000000E+000
                   100  3.604025952600829E-005
                   101  6.249576470714203E-004
                   102  0.000000000000000E+000
                   103  5.632837041093771E-004
                   104 -1.312168560957397E-004
                   105  9.261866109499075E-005
                   106  0.000000000000000E+000
                   107  8.435150862011292E-006
                   108  4.207298116050456E-005
                   109  0.000000000000000E+000
                   110 -2.520961395642518E-005
                   111  0.000000000000000E+000
                   112 -2.127082882706462E-004
                   113 -3.127763890764106E-005
                   114  0.000000000000000E+000
                   115 -9.344279138602025E-005
                   116  0.000000000000000E+000
                   117  2.993383476764238E-005
                   118  1.999203913484323E-005
                   119  0.000000000000000E+000
                   120  0.000000000000000E+000
                   121 -1.278202683922226E-005
                   122 -1.476124960206236E-004
                   123  7.643561845213821E-006
                   124  1.110647500297871E-004
                   125  1.274922276998454E-004
                   126  0.000000000000000E+000
                   127  4.131042583791936E-005
                   128 -7.999970882139151E-004
                   129  0.000000000000000E+000
                   130  2.011061313568803E-005
                   131  3.514699888967753E-004
                   132  0.000000000000000E+000
                   133 -1.721517754476461E-004
                   134  7.082065601879063E-004
                   135 -1.739664487053408E-005
                   136  0.000000000000000E+000
                   137  1.807481304210989E-006
                   138  1.523620401587555E-006
                   139  0.000000000000000E+000
                   140 -1.892659602786250E-004
                   141  0.000000000000000E+000
                   142  1.698044137353399E-004
                   143  1.261380209578340E-005
                   144  0.000000000000000E+000
                   145 -3.933619485454418E-005
                   146  0.000000000000000E+000
                   147  1.401255531110792E-006
                   148 -9.676944549843563E-006
                   149  0.000000000000000E+000
                   150  0.000000000000000E+000
                   151 -3.645840136440461E-006
                   152 -1.476124960206236E-004
                   153  7.643561845213821E-006
                   154  1.110647500297871E-004
                   155  1.274922276998454E-004
                   156  0.000000000000000E+000
                   157 -4.131042583791936E-005
                   158 -7.999970882139151E-004
                   159  0.000000000000000E+000
                   160 -2.011061313568803E-005
                   161  3.514699888967753E-004
                   162  0.000000000000000E+000
                   163  1.721517754476461E-004
                   164  7.082065601879063E-004
                   165 -1.739664487053408E-005
                   166  0.000000000000000E+000
                   167 -1.807481304210989E-006
                   168  1.523620401587555E-006
                   169  0.000000000000000E+000
                   170 -1.892659602786250E-004
                   171  0.000000000000000E+000
                   172 -1.698044137353399E-004
                   173  1.261380209578340E-005
                   174  0.000000000000000E+000
                   175 -3.933619485454418E-005
                   176  0.000000000000000E+000
                   177 -1.401255531110792E-006
                   178 -9.676944549843563E-006
                   179  0.000000000000000E+000
                   180  0.000000000000000E+000
                   181  3.645840136440461E-006
                   182 -1.217384267750730E-004
                   183 -3.265594314113317E-004
                   184  3.213067871416875E-005
                   185  1.475642984373079E-004
                   186  0.000000000000000E+000
                   187  0.000000000000000E+000
                   188 -4.065531190376484E-005
                   189  0.000000000000000E+000
                   190  0.000000000000000E+000
                   191  1.791395763540117E-005
                   192  0.000000000000000E+000
                   193  0.000000000000000E+000
                   194  5.525094641404031E-005
                   195  1.922525077167509E-005
                   196  0.000000000000000E+000
                   197  0.000000000000000E+000
                   198  9.136197064546707E-006
                   199  0.000000000000000E+000
                   200  5.895599523326474E-005
                   201  0.000000000000000E+000
                   202  0.000000000000000E+000
                   203  4.971064494085806E-005
                   204  0.000000000000000E+000
                   205 -1.167781261568876E-005
                   206  0.000000000000000E+000
                   207  0.000000000000000E+000
                   208  3.213853881434586E-006
                   209  0.000000000000000E+000
                   210  0.000000000000000E+000
                   211  0.000000000000000E+000
                   212  3.855732835829693E-003
                   213 -2.325768835549991E-003
                   214  0.000000000000000E+000
                   215  4.677854754097807E-004
                   216  3.805954035214792E-004
                   217  3.855732835829693E-003
                   218 -2.325768835549991E-003
                   219  0.000000000000000E+000
                   220 -4.677854754097807E-004
                   221  3.805954035214792E-004
                   222 -6.698511545330393E-004
                   223 -1.199281873805294E-004
                   224  0.000000000000000E+000
                   225 -1.697904634415681E-005
                   226 -4.528525562396033E-005
                   227 -6.698511545330393E-004
                   228 -1.199281873805294E-004
                   229  0.000000000000000E+000
                   230  1.697904634415681E-005
                   231 -4.528525562396033E-005
                   232 -2.338542778525350E-004
                   233 -4.093222582520060E-004
                   234  0.000000000000000E+000
                   235 -5.630286710259624E-006
                   236  5.925491588344343E-006
                   237 -2.338542778525350E-004
                   238 -4.093222582520060E-004
                   239  0.000000000000000E+000
                   240  5.630286710259624E-006
                   241  5.925491588344343E-006
                   242  6.911917250251633E-005
                   243 -1.313029711696301E-004
                   244  0.000000000000000E+000
                   245  0.000000000000000E+000
                   246  1.439087521537211E-005
 Sym= __2_A1_
 Ene=   2.00000000000000     
 Spin= Alpha
 Occup=    1.00000000000000     
                     1 -4.667610034474266E-005
                     2 -2.158594830654566E-004
                     3  2.293790375264810E-003
                     4  1.018612923000873E-004
                     5  1.263803144442482E-003
                     6  0.000000000000000E+000
                     7  0.000000000000000E+000
                     8  3.012074635643437E-003
                     9  0.000000000000000E+000
                    10  0.000000000000000E+000
                    11 -4.988610994791604E-005
                    12  0.000000000000000E+000
                    13  0.000000000000000E+000
                    14 -5.489567740940338E-004
                    15  4.269150573037285E-005
                    16  0.000000000000000E+000
                    17  0.000000000000000E+000
                    18  6.537702127080096E-005
                    19  0.000000000000000E+000
                    20 -2.856546428727328E-004
                    21  0.000000000000000E+000
                    22  0.000000000000000E+000
                    23 -3.371088348918752E-004
                    24  0.000000000000000E+000
                    25  1.801029808060427E-004
                    26  0.000000000000000E+000
                    27  0.000000000000000E+000
                    28 -5.842211003607070E-007
                    29  0.000000000000000E+000
                    30  0.000000000000000E+000
                    31  0.000000000000000E+000
                    32   1.00106049240945     
                    33  9.290498920513875E-003
                    34  2.631898928728396E-003
                    35 -7.762597096044547E-003
                    36  0.000000000000000E+000
                    37  0.000000000000000E+000
                    38 -4.151442717331403E-003
                    39  0.000000000000000E+000
                    40  0.000000000000000E+000
                    41  1.004291518131807E-003
                    42  0.000000000000000E+000
                    43  0.000000000000000E+000
                    44  4.449255904542385E-003
                    45  4.767313299510931E-004
                    46  0.000000000000000E+000
                    47  0.000000000000000E+000
                    48 -4.313148304352982E-004
                    49  0.000000000000000E+000
                    50  5.827093156816152E-004
                    51  0.000000000000000E+000
                    52  0.000000000000000E+000
                    53  9.397612015769974E-004
                    54  0.000000000000000E+000
                    55  3.869426098437131E-004
                    56  0.000000000000000E+000
                    57  0.000000000000000E+000
                    58 -2.063225167529384E-004
                    59  0.000000000000000E+000
                    60  0.000000000000000E+000
                    61  0.000000000000000E+000
                    62  7.187546522407845E-003
                    63 -2.058667721430809E-003
                    64 -2.763259282316493E-004
                    65  3.040254953280357E-003
                    66  0.000000000000000E+000
                    67  9.398435097967203E-005
                    68 -7.573904971298538E-006
                    69  0.000000000000000E+000
                    70  6.012816471575643E-004
                    71  1.681480289247689E-005
                    72  0.000000000000000E+000
                    73 -2.098436473701609E-003
                    74  9.605106854553658E-005
                    75 -1.502765665466892E-005
                    76  0.000000000000000E+000
                    77  1.368191473829604E-005
                    78  2.896908551748360E-005
                    79  0.000000000000000E+000
                    80  7.635487330962736E-004
                    81  0.000000000000000E+000
                    82 -4.229209130824463E-004
                    83 -1.128764659718692E-005
                    84  0.000000000000000E+000
                    85  7.339031439606439E-005
                    86  0.000000000000000E+000
                    87  4.622591270353671E-005
                    88 -1.272120309617343E-004
                    89  0.000000000000000E+000
                    90  0.000000000000000E+000
                    91  5.017671188062554E-005
                    92  7.187546522407845E-003
                    93 -2.058667721430809E-003
                    94 -2.763259282316493E-004
                    95  3.040254953280357E-003
                    96  0.000000000000000E+000
                    97 -9.398435097967203E-005
                    98 -7.573904971298538E-006
                    99  0.000000000000000E+000
                   100 -6.012816471575643E-004
                   101  1.681480289247689E-005
                   102  0.000000000000000E+000
                   103  2.098436473701609E-003
                   104  9.605106854553658E-005
                   105 -1.502765665466892E-005
                   106  0.000000000000000E+000
                   107 -1.368191473829604E-005
                   108  2.896908551748360E-005
                   109  0.000000000000000E+000
                   110  7.635487330962736E-004
                   111  0.000000000000000E+000
                   112  4.229209130824463E-004
                   113 -1.128764659718692E-005
                   114  0.000000000000000E+000
                   115  7.339031439606439E-005
                   116  0.000000000000000E+000
                   117 -4.622591270353671E-005
                   118 -1.272120309617343E-004
                   119  0.000000000000000E+000
                   120  0.000000000000000E+000
                   121 -5.017671188062554E-005
                   122 -2.333709657793002E-004
                   123 -7.541447402992906E-004
                   124  2.243377010045875E-004
                   125 -1.093166804000832E-004
                   126  0.000000000000000E+000
                   127 -1.799546002636340E-005
                   128 -2.559246447093222E-004
                   129  0.000000000000000E+000
                   130 -9.613958669518053E-006
                   131  5.352142451906160E-004
                   132  0.000000000000000E+000
                   133  3.288166460745207E-004
                   134  7.515328654914687E-004
                   135 -1.388733836257225E-005
                   136  0.000000000000000E+000
                   137  5.167050246813320E-005
                   138  1.389960729910013E-005
                   139  0.000000000000000E+000
                   140 -2.891132201056168E-004
                   141  0.000000000000000E+000
                   142 -2.182161708787499E-004
                   143 -1.301538873200781E-005
                   144  0.000000000000000E+000
                   145  1.323071511655529E-006
                   146  0.000000000000000E+000
                   147 -4.127773594556470E-005
                   148 -3.985856727237746E-005
                   149  0.000000000000000E+000
                   150  0.000000000000000E+000
                   151 -5.524034878780475E-006
                   152 -2.333709657793002E-004
                   153 -7.541447402992906E-004
                   154  2.243377010045875E-004
                   155 -1.093166804000832E-004
                   156  0.000000000000000E+000
                   157  1.799546002636340E-005
                   158 -2.559246447093222E-004
                   159  0.000000000000000E+000
                   160  9.613958669518053E-006