[Molden Format]
[Atoms] AU
  N     1    7     0.0000000000   -4.2907334100    0.0000000000        
  C     2    6     0.0000000000   -1.7772236300    0.0000000000        
  C     3    6    -2.3389203600   -0.4111016300    0.0000000000        
  C     4    6     2.3389203600   -0.4111016300    0.0000000000        
  C     5    6    -2.2998668500    2.1639215300    0.0000000000        
  C     6    6     2.2998668500    2.1639215300    0.0000000000        
  C     7    6     0.0000000000    3.4755251800    0.0000000000        
  H     8    1    -2.4124509000   -5.7790131500    0.0000000000        
  H     9    1     1.6528040300   -5.3103747800    0.0000000000        
  H    10    1    -4.0745407300   -1.4447408500    0.0000000000        
  H    11    1     4.0745407300   -1.4447408500    0.0000000000        
  H    12    1    -4.0420632100    3.1963889500    0.0000000000        
  H    13    1     4.0420632100    3.1963889500    0.0000000000        
  H    14    1     0.0000000000    5.5020335600    0.0000000000        
[5D]
[7F]
[GTO]
  1  0
   s    12 1.00
  0.114200D+05  0.172695D-04
  0.171200D+04  0.134411D-03
  0.389300D+03  0.694561D-03
  0.110000D+03  0.278531D-02
  0.355700D+02  0.863457D-02
  0.125400D+02  0.199805D-01
  0.464400D+01  0.262908D-01
  0.129300D+01 -0.243845D-01
  0.511800D+00 -0.924934D-01
  0.178700D+00 -0.339683D+00
  0.246240D-01  0.345111D+00
  0.112530D-01  0.752750D+00
   s    10 1.00
  0.114200D+05  0.523000D-03
  0.171200D+04  0.404500D-02
  0.389300D+03  0.207750D-01
  0.110000D+03  0.807269D-01
  0.355700D+02  0.233074D+00
  0.125400D+02  0.433501D+00
  0.464400D+01  0.347472D+00
  0.129300D+01  0.412620D-01
  0.511800D+00 -0.850799D-02
  0.178700D+00  0.238400D-02
   s    10 1.00
  0.114200D+05 -0.115000D-03
  0.171200D+04 -0.895000D-03
  0.389300D+03 -0.462400D-02
  0.110000D+03 -0.185280D-01
  0.355700D+02 -0.573390D-01
  0.125400D+02 -0.132076D+00
  0.464400D+01 -0.172510D+00
  0.129300D+01  0.151814D+00
  0.511800D+00  0.599944D+00
  0.178700D+00  0.387462D+00
   s     1 1.00
  0.129300D+01  0.100000D+01
   s     1 1.00
  0.178700D+00  0.100000D+01
   p     5 1.00
  0.266300D+02  0.146700D-01
  0.594800D+01  0.917640D-01
  0.174200D+01  0.298683D+00
  0.555000D+00  0.498487D+00
  0.172500D+00  0.337023D+00
   p     1 1.00
  0.174200D+01  0.100000D+01
   p     1 1.00
  0.555000D+00  0.100000D+01
   d     1 1.00
  0.165400D+01  0.100000D+01
   d     1 1.00
  0.469000D+00  0.100000D+01
   f     1 1.00
  0.109300D+01  0.100000D+01
  
  2  0
   s    10 1.00
  0.823600D+04  0.531000D-03
  0.123500D+04  0.410800D-02
  0.280800D+03  0.210870D-01
  0.792700D+02  0.818530D-01
  0.255900D+02  0.234817D+00
  0.899700D+01  0.434401D+00
  0.331900D+01  0.346129D+00
  0.905900D+00  0.393780D-01
  0.364300D+00 -0.898300D-02
  0.128500D+00  0.238500D-02
   s    10 1.00
  0.823600D+04 -0.113000D-03
  0.123500D+04 -0.878000D-03
  0.280800D+03 -0.454000D-02
  0.792700D+02 -0.181330D-01
  0.255900D+02 -0.557600D-01
  0.899700D+01 -0.126895D+00
  0.331900D+01 -0.170352D+00
  0.905900D+00  0.140382D+00
  0.364300D+00  0.598684D+00
  0.128500D+00  0.395389D+00
   s     1 1.00
  0.905900D+00  0.100000D+01
   s     1 1.00
  0.364300D+00  0.100000D+01
   p     5 1.00
  0.187100D+02  0.140310D-01
  0.413300D+01  0.868660D-01
  0.120000D+01  0.290216D+00
  0.382700D+00  0.501008D+00
  0.120900D+00  0.343406D+00
   p     1 1.00
  0.382700D+00  0.100000D+01
   p     1 1.00
  0.120900D+00  0.100000D+01
   d     1 1.00
  0.109700D+01  0.100000D+01
   d     1 1.00
  0.318000D+00  0.100000D+01
   f     1 1.00
  0.761000D+00  0.100000D+01
  
  3  0
   s    10 1.00
  0.823600D+04  0.531000D-03
  0.123500D+04  0.410800D-02
  0.280800D+03  0.210870D-01
  0.792700D+02  0.818530D-01
  0.255900D+02  0.234817D+00
  0.899700D+01  0.434401D+00
  0.331900D+01  0.346129D+00
  0.905900D+00  0.393780D-01
  0.364300D+00 -0.898300D-02
  0.128500D+00  0.238500D-02
   s    10 1.00
  0.823600D+04 -0.113000D-03
  0.123500D+04 -0.878000D-03
  0.280800D+03 -0.454000D-02
  0.792700D+02 -0.181330D-01
  0.255900D+02 -0.557600D-01
  0.899700D+01 -0.126895D+00
  0.331900D+01 -0.170352D+00
  0.905900D+00  0.140382D+00
  0.364300D+00  0.598684D+00
  0.128500D+00  0.395389D+00
   s     1 1.00
  0.905900D+00  0.100000D+01
   s     1 1.00
  0.364300D+00  0.100000D+01
   p     5 1.00
  0.187100D+02  0.140310D-01
  0.413300D+01  0.868660D-01
  0.120000D+01  0.290216D+00
  0.382700D+00  0.501008D+00
  0.120900D+00  0.343406D+00
   p     1 1.00
  0.382700D+00  0.100000D+01
   p     1 1.00
  0.120900D+00  0.100000D+01
   d     1 1.00
  0.109700D+01  0.100000D+01
   d     1 1.00
  0.318000D+00  0.100000D+01
   f     1 1.00
  0.761000D+00  0.100000D+01
  
  4  0
   s    10 1.00
  0.823600D+04  0.531000D-03
  0.123500D+04  0.410800D-02
  0.280800D+03  0.210870D-01
  0.792700D+02  0.818530D-01
  0.255900D+02  0.234817D+00
  0.899700D+01  0.434401D+00
  0.331900D+01  0.346129D+00
  0.905900D+00  0.393780D-01
  0.364300D+00 -0.898300D-02
  0.128500D+00  0.238500D-02
   s    10 1.00
  0.823600D+04 -0.113000D-03
  0.123500D+04 -0.878000D-03
  0.280800D+03 -0.454000D-02
  0.792700D+02 -0.181330D-01
  0.255900D+02 -0.557600D-01
  0.899700D+01 -0.126895D+00
  0.331900D+01 -0.170352D+00
  0.905900D+00  0.140382D+00
  0.364300D+00  0.598684D+00
  0.128500D+00  0.395389D+00
   s     1 1.00
  0.905900D+00  0.100000D+01
   s     1 1.00
  0.364300D+00  0.100000D+01
   p     5 1.00
  0.187100D+02  0.140310D-01
  0.413300D+01  0.868660D-01
  0.120000D+01  0.290216D+00
  0.382700D+00  0.501008D+00
  0.120900D+00  0.343406D+00
   p     1 1.00
  0.382700D+00  0.100000D+01
   p     1 1.00
  0.120900D+00  0.100000D+01
   d     1 1.00
  0.109700D+01  0.100000D+01
   d     1 1.00
  0.318000D+00  0.100000D+01
   f     1 1.00
  0.761000D+00  0.100000D+01
  
  5  0
   s    10 1.00
  0.823600D+04  0.531000D-03
  0.123500D+04  0.410800D-02
  0.280800D+03  0.210870D-01
  0.792700D+02  0.818530D-01
  0.255900D+02  0.234817D+00
  0.899700D+01  0.434401D+00
  0.331900D+01  0.346129D+00
  0.905900D+00  0.393780D-01
  0.364300D+00 -0.898300D-02
  0.128500D+00  0.238500D-02
   s    10 1.00
  0.823600D+04 -0.113000D-03
  0.123500D+04 -0.878000D-03
  0.280800D+03 -0.454000D-02
  0.792700D+02 -0.181330D-01
  0.255900D+02 -0.557600D-01
  0.899700D+01 -0.126895D+00
  0.331900D+01 -0.170352D+00
  0.905900D+00  0.140382D+00
  0.364300D+00  0.598684D+00
  0.128500D+00  0.395389D+00
   s     1 1.00
  0.905900D+00  0.100000D+01
   s     1 1.00
  0.364300D+00  0.100000D+01
   p     5 1.00
  0.187100D+02  0.140310D-01
  0.413300D+01  0.868660D-01
  0.120000D+01  0.290216D+00
  0.382700D+00  0.501008D+00
  0.120900D+00  0.343406D+00
   p     1 1.00
  0.382700D+00  0.100000D+01
   p     1 1.00
  0.120900D+00  0.100000D+01
   d     1 1.00
  0.109700D+01  0.100000D+01
   d     1 1.00
  0.318000D+00  0.100000D+01
   f     1 1.00
  0.761000D+00  0.100000D+01
  
  6  0
   s    10 1.00
  0.823600D+04  0.531000D-03
  0.123500D+04  0.410800D-02
  0.280800D+03  0.210870D-01
  0.792700D+02  0.818530D-01
  0.255900D+02  0.234817D+00
  0.899700D+01  0.434401D+00
  0.331900D+01  0.346129D+00
  0.905900D+00  0.393780D-01
  0.364300D+00 -0.898300D-02
  0.128500D+00  0.238500D-02
   s    10 1.00
  0.823600D+04 -0.113000D-03
  0.123500D+04 -0.878000D-03
  0.280800D+03 -0.454000D-02
  0.792700D+02 -0.181330D-01
  0.255900D+02 -0.557600D-01
  0.899700D+01 -0.126895D+00
  0.331900D+01 -0.170352D+00
  0.905900D+00  0.140382D+00
  0.364300D+00  0.598684D+00
  0.128500D+00  0.395389D+00
   s     1 1.00
  0.905900D+00  0.100000D+01
   s     1 1.00
  0.364300D+00  0.100000D+01
   p     5 1.00
  0.187100D+02  0.140310D-01
  0.413300D+01  0.868660D-01
  0.120000D+01  0.290216D+00
  0.382700D+00  0.501008D+00
  0.120900D+00  0.343406D+00
   p     1 1.00
  0.382700D+00  0.100000D+01
   p     1 1.00
  0.120900D+00  0.100000D+01
   d     1 1.00
  0.109700D+01  0.100000D+01
   d     1 1.00
  0.318000D+00  0.100000D+01
   f     1 1.00
  0.761000D+00  0.100000D+01
  
  7  0
   s    10 1.00
  0.823600D+04  0.531000D-03
  0.123500D+04  0.410800D-02
  0.280800D+03  0.210870D-01
  0.792700D+02  0.818530D-01
  0.255900D+02  0.234817D+00
  0.899700D+01  0.434401D+00
  0.331900D+01  0.346129D+00
  0.905900D+00  0.393780D-01
  0.364300D+00 -0.898300D-02
  0.128500D+00  0.238500D-02
   s    10 1.00
  0.823600D+04 -0.113000D-03
  0.123500D+04 -0.878000D-03
  0.280800D+03 -0.454000D-02
  0.792700D+02 -0.181330D-01
  0.255900D+02 -0.557600D-01
  0.899700D+01 -0.126895D+00
  0.331900D+01 -0.170352D+00
  0.905900D+00  0.140382D+00
  0.364300D+00  0.598684D+00
  0.128500D+00  0.395389D+00
   s     1 1.00
  0.905900D+00  0.100000D+01
   s     1 1.00
  0.364300D+00  0.100000D+01
   p     5 1.00
  0.187100D+02  0.140310D-01
  0.413300D+01  0.868660D-01
  0.120000D+01  0.290216D+00
  0.382700D+00  0.501008D+00
  0.120900D+00  0.343406D+00
   p     1 1.00
  0.382700D+00  0.100000D+01
   p     1 1.00
  0.120900D+00  0.100000D+01
   d     1 1.00
  0.109700D+01  0.100000D+01
   d     1 1.00
  0.318000D+00  0.100000D+01
   f     1 1.00
  0.761000D+00  0.100000D+01
  
  8  0
   s     4 1.00
  0.130100D+02  0.196850D-01
  0.196200D+01  0.137977D+00
  0.444600D+00  0.478148D+00
  0.122000D+00  0.501240D+00
   s     1 1.00
  0.122000D+00  0.100000D+01
   p     1 1.00
  0.727000D+00  0.100000D+01
  
  9  0
   s     4 1.00
  0.130100D+02  0.196850D-01
  0.196200D+01  0.137977D+00
  0.444600D+00  0.478148D+00
  0.122000D+00  0.501240D+00
   s     1 1.00
  0.122000D+00  0.100000D+01
   p     1 1.00
  0.727000D+00  0.100000D+01
  
 10  0
   s     4 1.00
  0.130100D+02  0.196850D-01
  0.196200D+01  0.137977D+00
  0.444600D+00  0.478148D+00
  0.122000D+00  0.501240D+00
   s     1 1.00
  0.122000D+00  0.100000D+01
   p     1 1.00
  0.727000D+00  0.100000D+01
  
 11  0
   s     4 1.00
  0.130100D+02  0.196850D-01
  0.196200D+01  0.137977D+00
  0.444600D+00  0.478148D+00
  0.122000D+00  0.501240D+00
   s     1 1.00
  0.122000D+00  0.100000D+01
   p     1 1.00
  0.727000D+00  0.100000D+01
  
 12  0
   s     4 1.00
  0.130100D+02  0.196850D-01
  0.196200D+01  0.137977D+00
  0.444600D+00  0.478148D+00
  0.122000D+00  0.501240D+00
   s     1 1.00
  0.122000D+00  0.100000D+01
   p     1 1.00
  0.727000D+00  0.100000D+01
  
 13  0
   s     4 1.00
  0.130100D+02  0.196850D-01
  0.196200D+01  0.137977D+00
  0.444600D+00  0.478148D+00
  0.122000D+00  0.501240D+00
   s     1 1.00
  0.122000D+00  0.100000D+01
   p     1 1.00
  0.727000D+00  0.100000D+01
  
 14  0
   s     4 1.00
  0.130100D+02  0.196850D-01
  0.196200D+01  0.137977D+00
  0.444600D+00  0.478148D+00
  0.122000D+00  0.501240D+00
   s     1 1.00
  0.122000D+00  0.100000D+01
   p     1 1.00
  0.727000D+00  0.100000D+01
  
[MO]
 Sym= __1_A'_
 Ene=   1.00000000000000     
 Spin= Alpha
 Occup=    1.00000000000000     
                     1  5.988915497132763E-005
                     2  0.998392563676335     
                     3  2.608921984399043E-003
                     4  1.777614911383969E-003
                     5  4.368499388329931E-003
                     6  2.932789978421565E-003
                     7  5.874907921283884E-003
                     8  0.000000000000000E+000
                     9 -5.552549913977880E-004
                    10 -4.380349310455303E-004
                    11  0.000000000000000E+000
                    12 -2.060278508451467E-003
                    13 -1.247140683331022E-003
                    14  0.000000000000000E+000
                    15 -1.336346102009021E-004
                    16  0.000000000000000E+000
                    17  0.000000000000000E+000
                    18 -1.970034070435704E-004
                    19 -8.081495389976261E-005
                    20  2.379454342557537E-004
                    21  0.000000000000000E+000
                    22  0.000000000000000E+000
                    23 -2.667593223773952E-004
                    24  4.541828218674339E-004
                    25  0.000000000000000E+000
                    26 -1.058834127991945E-005
                    27 -5.498712637626544E-005
                    28  0.000000000000000E+000
                    29  0.000000000000000E+000
                    30  1.079915114666478E-005
                    31 -1.305464704732060E-004
                    32 -3.113764427981588E-004
                    33  1.582834227543349E-003
                    34  2.385176085200530E-004
                    35 -2.786615230001718E-004
                    36 -1.730407741589265E-004
                    37 -5.012214463030054E-003
                    38  0.000000000000000E+000
                    39  4.193955089089419E-004
                    40  2.529488281696065E-004
                    41  0.000000000000000E+000
                    42 -1.766626776154312E-003
                    43  5.079115599400800E-003
                    44  0.000000000000000E+000
                    45 -2.373189609486793E-005
                    46  0.000000000000000E+000
                    47  0.000000000000000E+000
                    48 -2.537212391788224E-004
                    49 -1.959458171316458E-005
                    50 -2.878037930771622E-004
                    51  0.000000000000000E+000
                    52  0.000000000000000E+000
                    53  1.045669262737405E-004
                    54  6.567606500091629E-004
                    55  0.000000000000000E+000
                    56 -1.458555400833303E-005
                    57 -4.294087667426239E-005
                    58  0.000000000000000E+000
                    59  0.000000000000000E+000
                    60  4.530727221874354E-006
                    61 -1.273399106269002E-004
                    62 -4.214988464956566E-004
                    63 -2.015729175318854E-003
                    64 -6.887767970174477E-005
                    65  1.764647881446030E-003
                    66 -6.849690955575662E-004
                    67  5.084416087953639E-004
                    68  0.000000000000000E+000
                    69  3.714949021575542E-004
                    70  7.636101085040535E-004
                    71  0.000000000000000E+000
                    72 -1.528493020549586E-003
                    73  6.042395998698582E-004
                    74  0.000000000000000E+000
                    75 -3.653858741465725E-005
                    76  0.000000000000000E+000
                    77  0.000000000000000E+000
                    78 -8.067626906752129E-005
                    79 -2.830322308938242E-005
                    80 -1.168223030249085E-004
                    81  0.000000000000000E+000
                    82  0.000000000000000E+000
                    83  8.465547559654924E-005
                    84  1.210664409040066E-004
                    85  0.000000000000000E+000
                    86  1.135788142453650E-005
                    87 -4.625656930579088E-005
                    88  0.000000000000000E+000
                    89  0.000000000000000E+000
                    90 -2.318746260835779E-005
                    91 -1.391873511925882E-004
                    92 -1.432132721152626E-004
                    93 -1.128043165687561E-003
                    94  1.902021749427840E-004
                    95 -1.908965125259555E-004
                    96  6.100839943397454E-004
                    97  7.035053534047960E-004
                    98  0.000000000000000E+000
                    99  3.684173917080801E-004
                   100  3.822197667469575E-004
                   101  0.000000000000000E+000
                   102  4.594940542796859E-004
                   103 -1.178393458234629E-003
                   104  0.000000000000000E+000
                   105 -3.639637254126982E-006
                   106  0.000000000000000E+000
                   107  0.000000000000000E+000
                   108 -7.411818182940183E-005
                   109 -1.317753408394921E-005
                   110  1.045783509847976E-004
                   111  0.000000000000000E+000
                   112  0.000000000000000E+000
                   113 -9.026989246896640E-005
                   114 -8.661932193392012E-005
                   115  0.000000000000000E+000
                   116 -2.344151830563936E-005
                   117 -3.184604104740231E-005
                   118  0.000000000000000E+000
                   119  0.000000000000000E+000
                   120  1.313755376906192E-005
                   121 -3.801386792563320E-005
                   122 -2.434262767262404E-004
                   123 -4.615646121989360E-004
                   124  1.587782550289181E-004
                   125  3.318750767973096E-004
                   126 -3.606286003830572E-006
                   127 -5.536456097878379E-004
                   128  0.000000000000000E+000
                   129  1.536839113618399E-004
                   130  5.532037887169979E-004
                   131  0.000000000000000E+000
                   132  2.878631851709183E-004
                   133  1.729952313853725E-003
                   134  0.000000000000000E+000
                   135  1.277951790065825E-005
                   136  0.000000000000000E+000
                   137  0.000000000000000E+000
                   138  3.811580631921116E-005
                   139 -5.533368299292584E-008
                   140  1.773876084430933E-004
                   141  0.000000000000000E+000
                   142  0.000000000000000E+000
                   143  3.160861736289600E-004
                   144  2.336141095530351E-004
                   145  0.000000000000000E+000
                   146 -8.174010474598092E-006
                   147 -5.456761737233107E-005
                   148  0.000000000000000E+000
                   149  0.000000000000000E+000
                   150 -1.418598189991363E-005
                   151 -4.327663693241355E-005
                   152 -1.729190532350543E-004
                   153 -2.219825711955854E-004
                   154  5.026095101784453E-005
                   155  3.483822253133371E-004
                   156 -2.866808796089620E-005
                   157 -5.221624723225545E-004
                   158  0.000000000000000E+000
                   159  9.091399265841963E-006
                   160  9.860814961782856E-005
                   161  0.000000000000000E+000
                   162  6.354744343826047E-004
                   163 -7.796547046258700E-005
                   164  0.000000000000000E+000
                   165 -5.679872067676881E-007
                   166  0.000000000000000E+000
                   167  0.000000000000000E+000
                   168 -3.034410635266806E-006
                   169  3.206069814629557E-006
                   170  7.079494054795858E-005
                   171  0.000000000000000E+000
                   172  0.000000000000000E+000
                   173  3.863743271025600E-005
                   174 -5.809122709247168E-005
                   175  0.000000000000000E+000
                   176  4.123582471462315E-006
                   177 -1.251661953653608E-005
                   178  0.000000000000000E+000
                   179  0.000000000000000E+000
                   180 -1.784843489151111E-005
                   181 -1.281688356009931E-005
                   182 -1.587905201588083E-004
                   183 -4.484048958491544E-004
                   184  4.507785486101478E-005
                   185  2.261082446377508E-004
                   186 -3.123127303549083E-005
                   187 -5.240788782592882E-005
                   188  0.000000000000000E+000
                   189  1.651061343989315E-004
                   190  5.393848479651234E-005
                   191  0.000000000000000E+000
                   192  1.029435323183980E-003
                   193 -1.117156535465996E-004
                   194  0.000000000000000E+000
                   195 -1.323681359843436E-006
                   196  0.000000000000000E+000
                   197  0.000000000000000E+000
                   198 -1.457823209327851E-005
                   199  4.781687215357147E-006
                   200  1.907655716358238E-005
                   201  0.000000000000000E+000
                   202  0.000000000000000E+000
                   203 -8.182830548514212E-005
                   204 -1.417902374060272E-004
                   205  0.000000000000000E+000
                   206 -4.708091912595264E-006
                   207 -5.593029549127768E-006
                   208  0.000000000000000E+000
                   209  0.000000000000000E+000
                   210  7.545873137104754E-006
                   211 -5.624447992060151E-006
                   212  1.151483668777680E-004
                   213 -6.285837647259380E-005
                   214  1.660603516236571E-004
                   215  1.612844263404012E-004
                   216  0.000000000000000E+000
                   217  1.408147536846107E-003
                   218 -1.514137099888160E-003
                   219 -3.907986829526128E-004
                   220  2.260757974006339E-004
                   221  0.000000000000000E+000
                   222 -4.415550991664501E-004
                   223 -5.825899391291551E-004
                   224  1.324316164294764E-006
                   225 -6.283300195199938E-005
                   226  0.000000000000000E+000
                   227 -3.312201492974479E-004
                   228 -3.672147089046588E-004
                   229 -3.218739403832673E-006
                   230 -2.386934760530639E-005
                   231  0.000000000000000E+000
                   232 -9.324600149664366E-005
                   233 -5.116407919915083E-004
                   234  3.149276373308606E-006
                   235  7.433143222524661E-007
                   236  0.000000000000000E+000
                   237 -1.704472346875886E-004
                   238 -4.138902244499908E-004
                   239  5.952627912694114E-006
                   240  3.109138909501581E-006
                   241  0.000000000000000E+000
                   242  2.035006889519690E-005
                   243 -5.385175831674032E-005
                   244 -5.441595000689393E-007
                   245  2.045002121635058E-005
                   246  0.000000000000000E+000
 Sym= __2_A'_
 Ene=   2.00000000000000     
 Spin= Alpha
 Occup=    1.00000000000000     
                     1 -4.866740025502940E-005
                     2 -3.256442982925512E-004
                     3  2.610587299459692E-003
                     4  1.467385114308848E-004
                     5  1.344902150700214E-003
                     6 -3.124162488398395E-004
                     7  3.055341297947826E-003
                     8  0.000000000000000E+000
                     9 -5.980853297872807E-005
                    10 -9.425796092984792E-005
                    11  0.000000000000000E+000
                    12  1.232756110014960E-004
                    13 -4.748791729908380E-004
                    14  0.000000000000000E+000
                    15  3.625803181362560E-005
                    16  0.000000000000000E+000
                    17  0.000000000000000E+000
                    18 -5.505794877667078E-005
                    19  1.641935298171369E-006
                    20 -1.314729334372668E-004
                    21  0.000000000000000E+000
                    22  0.000000000000000E+000
                    23  2.187600104262418E-004
                    24  1.443182746552760E-005
                    25  0.000000000000000E+000
                    26 -1.561631091797263E-005
                    27  9.122562827038681E-005
                    28  0.000000000000000E+000
                    29  0.000000000000000E+000
                    30 -1.971296028687766E-005
                    31  1.418333379908483E-004
                    32   1.00101937837229     
                    33  9.364169465542209E-003
                    34  2.726563930710738E-003
                    35 -8.076813421534827E-003
                    36 -1.000312451303280E-004
                    37 -3.645677461088318E-003
                    38  0.000000000000000E+000
                    39  9.557585628814676E-005
                    40  4.452663236140298E-004
                    41  0.000000000000000E+000
                    42  8.332155891950119E-005
                    43  4.268425315225882E-003
                    44  0.000000000000000E+000
                    45 -5.728457669387598E-004
                    46  0.000000000000000E+000
                    47  0.000000000000000E+000
                    48 -1.994489461693230E-004
                    49 -7.564421864690193E-006
                    50  5.464171258297659E-004
                    51  0.000000000000000E+000
                    52  0.000000000000000E+000
                    53 -9.501219378110896E-004
                    54  8.002752122094866E-005
                    55  0.000000000000000E+000
                    56 -1.780311816716095E-006
                    57  9.310773912961968E-005
                    58  0.000000000000000E+000
                    59  0.000000000000000E+000
                    60 -2.172735590893378E-006
                    61  4.082119422837449E-004
                    62  8.974523642368377E-003
                    63 -2.083633538503617E-003
                    64 -2.936917860860380E-004
                    65  3.095061502474296E-003
                    66 -1.440914772290839E-006
                    67  7.988503149873850E-005
                    68  0.000000000000000E+000
                    69  7.372994373183186E-004
                    70 -2.526303258221186E-005
                    71  0.000000000000000E+000
                    72 -2.054928491454123E-003
                    73  4.816613104897184E-005
                    74  0.000000000000000E+000
                    75  2.582076111865042E-005
                    76  0.000000000000000E+000
                    77  0.000000000000000E+000
                    78 -2.988049151338086E-006
                    79  1.061633044358856E-006
                    80 -4.045080492544369E-004
                    81  0.000000000000000E+000
                    82  0.000000000000000E+000
                    83 -5.822100804484030E-004
                    84 -3.872242078838319E-004
                    85  0.000000000000000E+000
                    86  3.436860235289528E-005
                    87 -5.864487265283943E-005
                    88  0.000000000000000E+000
                    89  0.000000000000000E+000
                    90  5.346801635483978E-005
                    91  1.410949485612246E-004
                    92  9.695036851160806E-003
                    93 -2.084288974557332E-003
                    94 -2.838438828591848E-004
                    95  3.043861238907834E-003
                    96  3.505224174873378E-006
                    97  6.614862374987269E-005
                    98  0.000000000000000E+000
                    99 -6.599503154712181E-004
                   100  3.292151563804486E-005
                   101  0.000000000000000E+000
                   102  2.081917174912565E-003
                   103  8.552190869377268E-005
                   104  0.000000000000000E+000
                   105  3.008536059806376E-005
                   106  0.000000000000000E+000
                   107  0.000000000000000E+000
                   108 -3.254765138465534E-006
                   109 -7.885412060944045E-006
                   110 -4.119631902987979E-004
                   111  0.000000000000000E+000
                   112  0.000000000000000E+000
                   113 -6.323641110817176E-004
                   114  3.845798349770721E-004
                   115  0.000000000000000E+000
                   116 -3.190828336069831E-005
                   117 -5.870982961009818E-005
                   118  0.000000000000000E+000
                   119  0.000000000000000E+000
                   120 -5.111974362426502E-005
                   121  1.375974162858799E-004
                   122 -1.723194961977280E-004
                   123 -6.866929424100454E-004
                   124  2.223196083486752E-004
                   125 -8.971557848758045E-005
                   126 -4.334640712387536E-006
                   127 -3.199365410052772E-004
                   128  0.000000000000000E+000
                   129 -6.006454146712894E-005
                   130  5.241241338188003E-004
                   131  0.000000000000000E+000
                   132  3.000579277652797E-004
                   133  7.417976417329972E-004
                   134  0.000000000000000E+000
                   135  1.823187437544504E-005
                   136  0.000000000000000E+000
                   137  0.000000000000000E+000
                   138  3.678517986753042E-006
                   139  5.232438881753352E-005
                   140  1.369061731154095E-004
                   141  0.000000000000000E+000
                   142  0.000000000000000E+000
                   143  2.378506346715020E-004
                   144 -1.819249307909585E-004
                   145  0.000000000000000E+000
                   146  7.254965600158196E-006
                   147 -3.357273730805072E-005
                   148  0.000000000000000E+000
                   149  0.000000000000000E+000
                   150 -4.764302929557086E-005
                   151  2.858718872325579E-005
                   152 -1.453649830553831E-004
                   153 -6.917861130381083E-004
                   154  2.285093635462290E-004
                   155 -1.280053003432787E-004
                   156  3.514279491353357E-006
                   157 -3.187850775957317E-004
                   158  0.000000000000000E+000
                   159  3.629743290261041E-005
                   160  5.648176978081083E-004