[Molden Format]
[Atoms] AU
  N     1    7    -0.0048532200   -0.0034273700   -4.3632698700        
  C     2    6    -0.0034076400   -0.0044610900   -1.7321749400        
  C     3    6     0.1058961700   -2.3212654300   -0.4142494700        
  C     4    6    -0.1112622300    2.3113069000   -0.4123100800        
  C     5    6     0.1905576700   -2.2891907300    2.1806152800        
  C     6    6    -0.1930723700    2.2771931900    2.1826201300        
  C     7    6    -0.0005465700   -0.0065070600    3.4753316000        
  H     8    1    -1.4935497000   -0.7687910800   -5.3777279200        
  H     9    1     1.4827279800    0.7627338800   -5.3787614300        
  H    10    1     0.2116487900   -4.0481082000   -1.4565154600        
  H    11    1    -0.2181593000    4.0389680700   -1.4531020000        
  H    12    1     0.3765358000   -4.0225927300    3.2106863700        
  H    13    1    -0.3779177600    4.0097851700    3.2142567000        
  H    14    1     0.0005679600   -0.0073040800    5.5039620100        
[5D]
[7F]
[GTO]
  1  0
   s    12 1.00
  0.114200D+05  0.172695D-04
  0.171200D+04  0.134411D-03
  0.389300D+03  0.694561D-03
  0.110000D+03  0.278531D-02
  0.355700D+02  0.863457D-02
  0.125400D+02  0.199805D-01
  0.464400D+01  0.262908D-01
  0.129300D+01 -0.243845D-01
  0.511800D+00 -0.924934D-01
  0.178700D+00 -0.339683D+00
  0.246240D-01  0.345111D+00
  0.112530D-01  0.752750D+00
   s    10 1.00
  0.114200D+05  0.523000D-03
  0.171200D+04  0.404500D-02
  0.389300D+03  0.207750D-01
  0.110000D+03  0.807269D-01
  0.355700D+02  0.233074D+00
  0.125400D+02  0.433501D+00
  0.464400D+01  0.347472D+00
  0.129300D+01  0.412620D-01
  0.511800D+00 -0.850799D-02
  0.178700D+00  0.238400D-02
   s    10 1.00
  0.114200D+05 -0.115000D-03
  0.171200D+04 -0.895000D-03
  0.389300D+03 -0.462400D-02
  0.110000D+03 -0.185280D-01
  0.355700D+02 -0.573390D-01
  0.125400D+02 -0.132076D+00
  0.464400D+01 -0.172510D+00
  0.129300D+01  0.151814D+00
  0.511800D+00  0.599944D+00
  0.178700D+00  0.387462D+00
   s     1 1.00
  0.129300D+01  0.100000D+01
   s     1 1.00
  0.178700D+00  0.100000D+01
   p     5 1.00
  0.266300D+02  0.146700D-01
  0.594800D+01  0.917640D-01
  0.174200D+01  0.298683D+00
  0.555000D+00  0.498487D+00
  0.172500D+00  0.337023D+00
   p     1 1.00
  0.174200D+01  0.100000D+01
   p     1 1.00
  0.555000D+00  0.100000D+01
   d     1 1.00
  0.165400D+01  0.100000D+01
   d     1 1.00
  0.469000D+00  0.100000D+01
   f     1 1.00
  0.109300D+01  0.100000D+01
  
  2  0
   s    10 1.00
  0.823600D+04  0.531000D-03
  0.123500D+04  0.410800D-02
  0.280800D+03  0.210870D-01
  0.792700D+02  0.818530D-01
  0.255900D+02  0.234817D+00
  0.899700D+01  0.434401D+00
  0.331900D+01  0.346129D+00
  0.905900D+00  0.393780D-01
  0.364300D+00 -0.898300D-02
  0.128500D+00  0.238500D-02
   s    10 1.00
  0.823600D+04 -0.113000D-03
  0.123500D+04 -0.878000D-03
  0.280800D+03 -0.454000D-02
  0.792700D+02 -0.181330D-01
  0.255900D+02 -0.557600D-01
  0.899700D+01 -0.126895D+00
  0.331900D+01 -0.170352D+00
  0.905900D+00  0.140382D+00
  0.364300D+00  0.598684D+00
  0.128500D+00  0.395389D+00
   s     1 1.00
  0.905900D+00  0.100000D+01
   s     1 1.00
  0.364300D+00  0.100000D+01
   p     5 1.00
  0.187100D+02  0.140310D-01
  0.413300D+01  0.868660D-01
  0.120000D+01  0.290216D+00
  0.382700D+00  0.501008D+00
  0.120900D+00  0.343406D+00
   p     1 1.00
  0.382700D+00  0.100000D+01
   p     1 1.00
  0.120900D+00  0.100000D+01
   d     1 1.00
  0.109700D+01  0.100000D+01
   d     1 1.00
  0.318000D+00  0.100000D+01
   f     1 1.00
  0.761000D+00  0.100000D+01
  
  3  0
   s    10 1.00
  0.823600D+04  0.531000D-03
  0.123500D+04  0.410800D-02
  0.280800D+03  0.210870D-01
  0.792700D+02  0.818530D-01
  0.255900D+02  0.234817D+00
  0.899700D+01  0.434401D+00
  0.331900D+01  0.346129D+00
  0.905900D+00  0.393780D-01
  0.364300D+00 -0.898300D-02
  0.128500D+00  0.238500D-02
   s    10 1.00
  0.823600D+04 -0.113000D-03
  0.123500D+04 -0.878000D-03
  0.280800D+03 -0.454000D-02
  0.792700D+02 -0.181330D-01
  0.255900D+02 -0.557600D-01
  0.899700D+01 -0.126895D+00
  0.331900D+01 -0.170352D+00
  0.905900D+00  0.140382D+00
  0.364300D+00  0.598684D+00
  0.128500D+00  0.395389D+00
   s     1 1.00
  0.905900D+00  0.100000D+01
   s     1 1.00
  0.364300D+00  0.100000D+01
   p     5 1.00
  0.187100D+02  0.140310D-01
  0.413300D+01  0.868660D-01
  0.120000D+01  0.290216D+00
  0.382700D+00  0.501008D+00
  0.120900D+00  0.343406D+00
   p     1 1.00
  0.382700D+00  0.100000D+01
   p     1 1.00
  0.120900D+00  0.100000D+01
   d     1 1.00
  0.109700D+01  0.100000D+01
   d     1 1.00
  0.318000D+00  0.100000D+01
   f     1 1.00
  0.761000D+00  0.100000D+01
  
  4  0
   s    10 1.00
  0.823600D+04  0.531000D-03
  0.123500D+04  0.410800D-02
  0.280800D+03  0.210870D-01
  0.792700D+02  0.818530D-01
  0.255900D+02  0.234817D+00
  0.899700D+01  0.434401D+00
  0.331900D+01  0.346129D+00
  0.905900D+00  0.393780D-01
  0.364300D+00 -0.898300D-02
  0.128500D+00  0.238500D-02
   s    10 1.00
  0.823600D+04 -0.113000D-03
  0.123500D+04 -0.878000D-03
  0.280800D+03 -0.454000D-02
  0.792700D+02 -0.181330D-01
  0.255900D+02 -0.557600D-01
  0.899700D+01 -0.126895D+00
  0.331900D+01 -0.170352D+00
  0.905900D+00  0.140382D+00
  0.364300D+00  0.598684D+00
  0.128500D+00  0.395389D+00
   s     1 1.00
  0.905900D+00  0.100000D+01
   s     1 1.00
  0.364300D+00  0.100000D+01
   p     5 1.00
  0.187100D+02  0.140310D-01
  0.413300D+01  0.868660D-01
  0.120000D+01  0.290216D+00
  0.382700D+00  0.501008D+00
  0.120900D+00  0.343406D+00
   p     1 1.00
  0.382700D+00  0.100000D+01
   p     1 1.00
  0.120900D+00  0.100000D+01
   d     1 1.00
  0.109700D+01  0.100000D+01
   d     1 1.00
  0.318000D+00  0.100000D+01
   f     1 1.00
  0.761000D+00  0.100000D+01
  
  5  0
   s    10 1.00
  0.823600D+04  0.531000D-03
  0.123500D+04  0.410800D-02
  0.280800D+03  0.210870D-01
  0.792700D+02  0.818530D-01
  0.255900D+02  0.234817D+00
  0.899700D+01  0.434401D+00
  0.331900D+01  0.346129D+00
  0.905900D+00  0.393780D-01
  0.364300D+00 -0.898300D-02
  0.128500D+00  0.238500D-02
   s    10 1.00
  0.823600D+04 -0.113000D-03
  0.123500D+04 -0.878000D-03
  0.280800D+03 -0.454000D-02
  0.792700D+02 -0.181330D-01
  0.255900D+02 -0.557600D-01
  0.899700D+01 -0.126895D+00
  0.331900D+01 -0.170352D+00
  0.905900D+00  0.140382D+00
  0.364300D+00  0.598684D+00
  0.128500D+00  0.395389D+00
   s     1 1.00
  0.905900D+00  0.100000D+01
   s     1 1.00
  0.364300D+00  0.100000D+01
   p     5 1.00
  0.187100D+02  0.140310D-01
  0.413300D+01  0.868660D-01
  0.120000D+01  0.290216D+00
  0.382700D+00  0.501008D+00
  0.120900D+00  0.343406D+00
   p     1 1.00
  0.382700D+00  0.100000D+01
   p     1 1.00
  0.120900D+00  0.100000D+01
   d     1 1.00
  0.109700D+01  0.100000D+01
   d     1 1.00
  0.318000D+00  0.100000D+01
   f     1 1.00
  0.761000D+00  0.100000D+01
  
  6  0
   s    10 1.00
  0.823600D+04  0.531000D-03
  0.123500D+04  0.410800D-02
  0.280800D+03  0.210870D-01
  0.792700D+02  0.818530D-01
  0.255900D+02  0.234817D+00
  0.899700D+01  0.434401D+00
  0.331900D+01  0.346129D+00
  0.905900D+00  0.393780D-01
  0.364300D+00 -0.898300D-02
  0.128500D+00  0.238500D-02
   s    10 1.00
  0.823600D+04 -0.113000D-03
  0.123500D+04 -0.878000D-03
  0.280800D+03 -0.454000D-02
  0.792700D+02 -0.181330D-01
  0.255900D+02 -0.557600D-01
  0.899700D+01 -0.126895D+00
  0.331900D+01 -0.170352D+00
  0.905900D+00  0.140382D+00
  0.364300D+00  0.598684D+00
  0.128500D+00  0.395389D+00
   s     1 1.00
  0.905900D+00  0.100000D+01
   s     1 1.00
  0.364300D+00  0.100000D+01
   p     5 1.00
  0.187100D+02  0.140310D-01
  0.413300D+01  0.868660D-01
  0.120000D+01  0.290216D+00
  0.382700D+00  0.501008D+00
  0.120900D+00  0.343406D+00
   p     1 1.00
  0.382700D+00  0.100000D+01
   p     1 1.00
  0.120900D+00  0.100000D+01
   d     1 1.00
  0.109700D+01  0.100000D+01
   d     1 1.00
  0.318000D+00  0.100000D+01
   f     1 1.00
  0.761000D+00  0.100000D+01
  
  7  0
   s    10 1.00
  0.823600D+04  0.531000D-03
  0.123500D+04  0.410800D-02
  0.280800D+03  0.210870D-01
  0.792700D+02  0.818530D-01
  0.255900D+02  0.234817D+00
  0.899700D+01  0.434401D+00
  0.331900D+01  0.346129D+00
  0.905900D+00  0.393780D-01
  0.364300D+00 -0.898300D-02
  0.128500D+00  0.238500D-02
   s    10 1.00
  0.823600D+04 -0.113000D-03
  0.123500D+04 -0.878000D-03
  0.280800D+03 -0.454000D-02
  0.792700D+02 -0.181330D-01
  0.255900D+02 -0.557600D-01
  0.899700D+01 -0.126895D+00
  0.331900D+01 -0.170352D+00
  0.905900D+00  0.140382D+00
  0.364300D+00  0.598684D+00
  0.128500D+00  0.395389D+00
   s     1 1.00
  0.905900D+00  0.100000D+01
   s     1 1.00
  0.364300D+00  0.100000D+01
   p     5 1.00
  0.187100D+02  0.140310D-01
  0.413300D+01  0.868660D-01
  0.120000D+01  0.290216D+00
  0.382700D+00  0.501008D+00
  0.120900D+00  0.343406D+00
   p     1 1.00
  0.382700D+00  0.100000D+01
   p     1 1.00
  0.120900D+00  0.100000D+01
   d     1 1.00
  0.109700D+01  0.100000D+01
   d     1 1.00
  0.318000D+00  0.100000D+01
   f     1 1.00
  0.761000D+00  0.100000D+01
  
  8  0
   s     4 1.00
  0.130100D+02  0.196850D-01
  0.196200D+01  0.137977D+00
  0.444600D+00  0.478148D+00
  0.122000D+00  0.501240D+00
   s     1 1.00
  0.122000D+00  0.100000D+01
   p     1 1.00
  0.727000D+00  0.100000D+01
  
  9  0
   s     4 1.00
  0.130100D+02  0.196850D-01
  0.196200D+01  0.137977D+00
  0.444600D+00  0.478148D+00
  0.122000D+00  0.501240D+00
   s     1 1.00
  0.122000D+00  0.100000D+01
   p     1 1.00
  0.727000D+00  0.100000D+01
  
 10  0
   s     4 1.00
  0.130100D+02  0.196850D-01
  0.196200D+01  0.137977D+00
  0.444600D+00  0.478148D+00
  0.122000D+00  0.501240D+00
   s     1 1.00
  0.122000D+00  0.100000D+01
   p     1 1.00
  0.727000D+00  0.100000D+01
  
 11  0
   s     4 1.00
  0.130100D+02  0.196850D-01
  0.196200D+01  0.137977D+00
  0.444600D+00  0.478148D+00
  0.122000D+00  0.501240D+00
   s     1 1.00
  0.122000D+00  0.100000D+01
   p     1 1.00
  0.727000D+00  0.100000D+01
  
 12  0
   s     4 1.00
  0.130100D+02  0.196850D-01
  0.196200D+01  0.137977D+00
  0.444600D+00  0.478148D+00
  0.122000D+00  0.501240D+00
   s     1 1.00
  0.122000D+00  0.100000D+01
   p     1 1.00
  0.727000D+00  0.100000D+01
  
 13  0
   s     4 1.00
  0.130100D+02  0.196850D-01
  0.196200D+01  0.137977D+00
  0.444600D+00  0.478148D+00
  0.122000D+00  0.501240D+00
   s     1 1.00
  0.122000D+00  0.100000D+01
   p     1 1.00
  0.727000D+00  0.100000D+01
  
 14  0
   s     4 1.00
  0.130100D+02  0.196850D-01
  0.196200D+01  0.137977D+00
  0.444600D+00  0.478148D+00
  0.122000D+00  0.501240D+00
   s     1 1.00
  0.122000D+00  0.100000D+01
   p     1 1.00
  0.727000D+00  0.100000D+01
  
[MO]
 Sym= __1_a__
 Ene=  0.000000000000000E+000
 Spin= Alpha
 Occup=    2.00000000000000     
                     1  6.321324558094640E-005
                     2  0.997763779623253     
                     3  1.227540546853160E-002
                     4  2.164561000755690E-003
                     5  1.006536038684910E-003
                     6  1.811204442444300E-006
                     7 -1.303719510690570E-006
                     8  3.280064481333120E-003
                     9 -1.608203071241040E-007
                    10  1.223032098271540E-007
                    11 -2.841614582005920E-004
                    12 -3.107436745057230E-007
                    13  1.920610122579390E-007
                    14 -5.613732859936540E-004
                    15  1.525897815671024E-004
                    16  1.569556157770620E-007
                    17 -1.676497601879460E-007
                    18  4.213227551077340E-005
                    19  8.660366524758050E-005
                    20  4.374821832827414E-005
                    21  3.173263643327530E-008
                    22  2.973805593037210E-007
                    23 -2.960326233214180E-004
                    24 -4.242630711755890E-004
                    25 -1.702917515755051E-004
                    26  2.059387302330442E-007
                    27 -9.993864897598916E-008
                    28 -1.847417156906986E-005
                    29 -6.216310645965780E-005
                    30  4.254489425788279E-008
                    31 -3.321074703752430E-008
                    32 -1.942166330225880E-004
                    33  2.742292342191430E-003
                    34  8.888341203619170E-005
                    35 -5.561323144746170E-004
                    36 -3.605590568413160E-006
                    37  2.593605442985330E-006
                    38 -6.553612968878040E-003
                    39 -1.088753867418550E-007
                    40  3.055814757339810E-008
                    41 -2.194487787708910E-004
                    42  2.028769714214370E-006
                    43 -1.410613263952970E-006
                    44  3.711840133175950E-003
                    45  3.786593511666457E-004
                    46  3.029793307927100E-007
                    47 -2.830923022367720E-007
                    48  9.999797004135860E-005
                    49 -7.635856032101650E-006
                    50  6.701859577669815E-004
                    51  6.382298484549840E-007
                    52 -6.766900303753160E-007
                    53  6.645693454474860E-005
                    54  9.535018094710931E-005
                    55 -5.145781215273828E-005
                    56  2.106905877726126E-008
                    57 -6.740938107106813E-008
                    58  4.513816386083200E-005
                    59 -1.583734227866190E-005
                    60 -2.283373678595594E-008
                    61 -3.611971004319989E-008
                    62 -1.855372572643930E-004
                    63 -1.679285207649550E-003
                    64 -2.535835802652390E-006
                    65  8.063148552207760E-004
                    66  1.708754299332600E-005
                    67 -8.760727043149440E-004
                    68  1.197557605008790E-003
                    69  4.296832139440210E-005
                    70  1.122295126328020E-004
                    71  1.416698221541700E-004
                    72  4.403234633922380E-005
                    73 -5.869789114182440E-004
                    74 -3.135856092218980E-004
                    75  9.118887709468900E-005
                    76  2.789342698643360E-006
                    77 -1.299969553793620E-005
                    78  3.273812762187360E-005
                    79  1.396917369768830E-006
                    80  3.876966110446424E-005
                    81 -1.407236903355350E-005
                    82 -1.091195125931170E-005
                    83  1.268989256136464E-005
                    84  2.731166365232730E-005
                    85 -7.418112646138024E-005
                    86  6.635870829935236E-006
                    87 -6.155515928207025E-006
                    88  2.130920429463000E-005
                    89 -4.160858477728490E-006
                    90  2.755012407184898E-006
                    91  2.224248714232565E-005
                    92 -1.855009023142210E-004
                    93 -1.679139895971160E-003
                    94 -2.372613571703150E-006
                    95  8.058049024830270E-004
                    96 -1.577502076579910E-005
                    97  8.751511884801720E-004
                    98  1.198373331457890E-003
                    99 -4.278731936404410E-005
                   100 -1.124856428354800E-004
                   101  1.410207863271490E-004
                   102 -4.433379775865860E-005
                   103  5.866510850858770E-004
                   104 -3.129022674520550E-004
                   105  9.118030894184836E-005
                   106 -2.649646225661340E-006
                   107  1.286536054550720E-005
                   108  3.274684662910580E-005
                   109  1.412454121310750E-006
                   110  3.831553095857583E-005
                   111  1.417685081276690E-005
                   112  1.070816694151900E-005
                   113  1.262573913170068E-005
                   114  2.730898610918880E-005
                   115 -7.414162268016521E-005
                   116 -6.474227172730896E-006
                   117  5.997082672454282E-006
                   118  2.127550839290740E-005
                   119 -4.116182189703300E-006
                   120 -2.780158910582954E-006
                   121 -2.226732832655811E-005
                   122 -1.524300094160810E-004
                   123  2.635314187296070E-005
                   124  7.590664222621621E-005
                   125  2.633951526748090E-004
                   126 -7.352180503426590E-005
                   127  5.145633018758380E-005
                   128 -8.486767931992020E-004
                   129 -4.242322212359200E-006
                   130  2.368956998875640E-005
                   131  2.054304609639900E-004
                   132  1.650038595484140E-005
                   133 -4.068294639187580E-005
                   134  5.487102292733060E-004
                   135 -9.071262783079182E-007
                   136  1.562209805173750E-006
                   137  5.521108797647740E-006
                   138 -2.115902333285280E-006
                   139  1.442986866600390E-006
                   140 -1.262210009825443E-004
                   141 -1.266047871723980E-005
                   142  9.627340147162460E-005
                   143  3.623050054091860E-005
                   144 -4.769298571219110E-006
                   145 -2.429338612897912E-005
                   146 -1.801777123610903E-007
                   147 -5.028514711007660E-006
                   148 -8.339392113988021E-006
                   149 -1.387301937883350E-006
                   150 -1.035648185773886E-006
                   151 -2.383600338113832E-006
                   152 -1.529093846661410E-004
                   153  2.465068184007190E-005
                   154  7.540239788627210E-005
                   155  2.665060799972300E-004
                   156  7.257632818166821E-005
                   157 -5.072605747005920E-005
                   158 -8.487692501695330E-004
                   159  4.531399698970830E-006
                   160 -2.426018671099810E-005
                   161  2.050901819067680E-004
                   162 -1.595276542735870E-005
                   163  4.078385709198820E-005
                   164  5.489417165253010E-004
                   165 -8.583501849099003E-007
                   166 -1.563537059458550E-006
                   167 -5.529896331223000E-006
                   168 -2.176012828133240E-006
                   169  1.427530305120790E-006
                   170 -1.262590403895134E-004
                   171  1.238536117237580E-005
                   172 -9.639628202342540E-005
                   173  3.610832551778460E-005
                   174 -4.889138552513200E-006
                   175 -2.421283052927624E-005
                   176  2.634763264324519E-007
                   177  4.999925733857727E-006
                   178 -8.383741123805400E-006
                   179 -1.391059304920690E-006
                   180  1.049848191602510E-006
                   181  2.400623027068042E-006
                   182 -1.260174967041000E-004
                   183 -3.433600891675800E-004
                   184  2.369372428827340E-005
                   185  2.376471427182110E-004
                   186 -3.422775513650740E-008
                   187  1.101050386040630E-007
                   188 -4.235680681150730E-005
                   189  5.125684995403270E-008
                   190 -4.874414971333680E-007
                   191  9.819346550345610E-006
                   192 -1.732872582406120E-008
                   193 -3.488534844778020E-008
                   194 -4.511591479743740E-005
                   195  2.151971741006911E-005
                   196  1.458836009862830E-008
                   197  7.390373680208350E-009
                   198  7.512830373054020E-006
                   199  2.303883493529980E-006
                   200  2.803282411784184E-005
                   201 -4.029568294544930E-009
                   202  2.063632611112190E-007
                   203  2.324576738074020E-005
                   204  4.138554899885540E-007
                   205 -1.039999801843774E-005
                   206  1.422684891790150E-008
                   207 -1.986124607606138E-008
                   208  1.899454762672120E-006
                   209  1.618403442660930E-006
                   210  5.119015165690577E-009
                   211  2.927444092775896E-008
                   212  5.809766859909960E-003
                   213 -3.203792830847150E-003
                   214  5.575742239746120E-004
                   215  2.759553453146010E-004
                   216  4.192536160592490E-004
                   217  5.809738213175350E-003
                   218 -3.203781391742960E-003
                   219 -5.571099596739170E-004
                   220 -2.762865515897060E-004
                   221  4.196476089985040E-004
                   222 -6.686664633012910E-004
                   223 -1.904324396922300E-004
                   224  4.475625995878120E-006
                   225 -3.798414522457350E-005
                   226 -4.535907859716130E-005
                   227 -6.687318485649960E-004
                   228 -1.900562193687580E-004
                   229 -4.525134240608300E-006
                   230  3.800117326022750E-005
                   231 -4.535066737607550E-005
                   232 -2.663689803967620E-004
                   233 -2.327690936813030E-004
                   234 -2.600776593487620E-006
                   235 -1.393250562004760E-005
                   236 -1.828725024306080E-006
                   237 -2.664129037106750E-004
                   238 -2.329215676997720E-004
                   239  2.593452416830650E-006
                   240  1.398050303713110E-005
                   241 -1.769916385296720E-006
                   242  1.101168365753480E-004
                   243 -2.542010723745810E-005
                   244  8.422204163915280E-009
                   245 -2.894611235982450E-008
                   246  1.347511152501500E-005
 Sym= __2_a__
 Ene=  0.000000000000000E+000
 Spin= Alpha
 Occup=    2.00000000000000     
                     1 -1.341507977533940E-005
                     2 -7.082595472626980E-005
                     3  1.894498875195090E-003
                     4  2.856868093900330E-005
                     5  1.117064943620800E-003
                     6  1.107529908642460E-006
                     7 -7.947003971872100E-007
                     8  2.029658384246890E-003
                     9 -5.827744831625350E-008
                    10  4.165358890162130E-008
                    11 -1.117542263314030E-004
                    12 -3.264216557074080E-009
                    13  8.740290529377600E-009
                    14 -1.186726522210030E-005
                    15  5.866385832345427E-005
                    16  4.064932292084950E-008
                    17 -3.364202004197610E-008
                    18  1.277187923563362E-005
                    19 -1.970988489380060E-005
                    20 -8.326736168325186E-005
                    21 -1.846939541297020E-008
                    22  3.046461042209300E-008
                    23 -4.677861474883280E-005
                    24  8.320014714529320E-005
                    25  1.924854643282908E-004
                    26 -2.279448089585495E-007
                    27  2.348925075752693E-007
                    28 -5.069910105530360E-005
                    29 -2.269782641100980E-005
                    30  4.512487536514174E-008
                    31  9.497196862702404E-009
                    32   1.00100096639967     
                    33  8.910164251528321E-003
                    34  2.645462975037140E-003
                    35 -8.040273652186019E-003
                    36 -1.697501972391730E-006
                    37  1.207261600929300E-006
                    38 -3.088645905479080E-003
                    39  7.265464312064250E-007
                    40 -5.146902388844270E-007
                    41  1.324945351169090E-003
                    42  1.978481029448840E-006
                    43 -1.476924708999790E-006
                    44  3.587582507053990E-003
                    45  2.606736941446072E-004
                    46  4.656264312722520E-007
                    47 -1.841025321065570E-008
                    48 -4.016659844112100E-004
                    49 -7.491133074227030E-006
                    50  4.145701675802540E-004
                    51 -6.973057379609930E-008
                    52 -6.400314617047680E-007
                    53  8.833698863592640E-004
                    54  4.953694274564950E-005
                    55  2.867235873349321E-004
                    56 -2.303439263773260E-007
                    57  3.870933311563715E-007
                    58 -1.789520449840274E-004
                    59  1.106751071042740E-006
                    60  1.200806598845533E-007
                    61  8.863909263622194E-008
                    62  1.309498666997390E-002
                    63 -1.795020350349350E-003
                    64 -2.843385707651650E-004
                    65  2.976528941394170E-003
                    66 -7.046551885752730E-006
                    67  2.544310028877880E-004
                    68 -1.171713621306030E-004
                    69 -2.439914802068860E-005
                    70  4.891945820603370E-004
                    71  5.037865153011830E-005
                    72  1.155045031415950E-004
                    73 -1.856563741453150E-003
                    74  1.288566654629420E-004
                    75 -2.555083052096543E-005
                    76  1.800622772133310E-006
                    77  2.304889756245720E-005
                    78  2.325912478641280E-005
                    79  1.913897474684760E-006
                    80  8.200072238866410E-004
                    81  4.453110363361370E-005
                    82 -4.853672060579190E-004
                    83 -2.361990504409440E-006
                    84 -1.405934169119000E-005
                    85  4.747869216609359E-005
                    86  1.182978909146545E-006
                    87  3.195014966936453E-005
                    88 -1.037804689369644E-004
                    89 -4.363665194476890E-006
                    90  7.125042488461528E-006
                    91  5.455264090517426E-005
                    92  1.309495837415370E-002
                    93 -1.795098676694150E-003
                    94 -2.843858239911190E-004
                    95  2.976727395537600E-003
                    96  6.918312252043350E-006
                    97 -2.543407692863350E-004
                    98 -1.174064014161860E-004
                    99  2.444889561462900E-005
                   100 -4.892242735062830E-004
                   101  5.011595050200040E-005
                   102 -1.153738056772810E-004
                   103  1.856609518162250E-003
                   104  1.302903536737900E-004
                   105 -2.556481554011249E-005
                   106 -1.873812627067390E-006
                   107 -2.304071464943700E-005
                   108  2.323764608090000E-005
                   109  1.890338081808440E-006
                   110  8.208332964844167E-004
                   111 -4.298414054935290E-005
                   112  4.843158711401510E-004
                   113 -2.006551276833020E-006
                   114 -1.349103462278060E-005
                   115  4.752040183665160E-005
                   116 -1.136974467150749E-006
                   117 -3.172111569110247E-005
                   118 -1.038817323285146E-004
                   119 -4.350574198268080E-006
                   120 -6.980775456263875E-006
                   121 -5.445791939873155E-005
                   122 -1.237858966778840E-004
                   123 -7.546111295761540E-004
                   124  2.315154550756480E-004
                   125 -2.162726184546760E-004
                   126 -1.064779714867770E-005
                   127 -4.885402902106840E-005
                   128 -1.853090040685330E-004
                   129  2.747820021561350E-005
                   130  5.997791389218960E-005
                   131  5.645482176591271E-004
                   132 -1.636120668429780E-005
                   133  3.311312995966030E-004
                   134  6.147665242527310E-004
                   135 -2.443199161041115E-005
                   136 -4.744769525243270E-006
                   137  4.878721265380010E-005
                   138  1.616422525666854E-005
                   139  5.967004604158590E-006
                   140 -3.111769708983051E-004
                   141 -8.194781143166350E-006
                   142 -2.839475797310660E-004
                   143 -3.330566891504940E-005
                   144 -3.296177753357790E-005
                   145 -8.186460857897887E-006
                   146  6.561079167508159E-006
                   147 -2.204231943193955E-005
                   148 -2.474582787722960E-005
                   149 -5.199015886364170E-006
                   150 -8.299158010589817E-008
                   151 -8.024465845575903E-006
                   152 -1.234992424729190E-004
                   153 -7.536625201810420E-004
                   154  2.316074529323740E-004
                   155 -2.173745600292000E-004
                   156  1.044648292001920E-005
                   157  4.898562569128580E-005
                   158 -1.852862406029130E-004
                   159 -2.687064011068270E-005
                   160 -6.034467173014580E-005