[Molden Format]
[Atoms] AU
  N     1    7    -0.0048532200   -0.0034273700   -4.3632698700        
  C     2    6    -0.0034076400   -0.0044610900   -1.7321749400        
  C     3    6     0.1058961700   -2.3212654300   -0.4142494700        
  C     4    6    -0.1112622300    2.3113069000   -0.4123100800        
  C     5    6     0.1905576700   -2.2891907300    2.1806152800        
  C     6    6    -0.1930723700    2.2771931900    2.1826201300        
  C     7    6    -0.0005465700   -0.0065070600    3.4753316000        
  H     8    1    -1.4935497000   -0.7687910800   -5.3777279200        
  H     9    1     1.4827279800    0.7627338800   -5.3787614300        
  H    10    1     0.2116487900   -4.0481082000   -1.4565154600        
  H    11    1    -0.2181593000    4.0389680700   -1.4531020000        
  H    12    1     0.3765358000   -4.0225927300    3.2106863700        
  H    13    1    -0.3779177600    4.0097851700    3.2142567000        
  H    14    1     0.0005679600   -0.0073040800    5.5039620100        
[5D]
[7F]
[GTO]
  1  0
   s    12 1.00
  0.114200D+05  0.172695D-04
  0.171200D+04  0.134411D-03
  0.389300D+03  0.694561D-03
  0.110000D+03  0.278531D-02
  0.355700D+02  0.863457D-02
  0.125400D+02  0.199805D-01
  0.464400D+01  0.262908D-01
  0.129300D+01 -0.243845D-01
  0.511800D+00 -0.924934D-01
  0.178700D+00 -0.339683D+00
  0.246240D-01  0.345111D+00
  0.112530D-01  0.752750D+00
   s    10 1.00
  0.114200D+05  0.523000D-03
  0.171200D+04  0.404500D-02
  0.389300D+03  0.207750D-01
  0.110000D+03  0.807269D-01
  0.355700D+02  0.233074D+00
  0.125400D+02  0.433501D+00
  0.464400D+01  0.347472D+00
  0.129300D+01  0.412620D-01
  0.511800D+00 -0.850799D-02
  0.178700D+00  0.238400D-02
   s    10 1.00
  0.114200D+05 -0.115000D-03
  0.171200D+04 -0.895000D-03
  0.389300D+03 -0.462400D-02
  0.110000D+03 -0.185280D-01
  0.355700D+02 -0.573390D-01
  0.125400D+02 -0.132076D+00
  0.464400D+01 -0.172510D+00
  0.129300D+01  0.151814D+00
  0.511800D+00  0.599944D+00
  0.178700D+00  0.387462D+00
   s     1 1.00
  0.129300D+01  0.100000D+01
   s     1 1.00
  0.178700D+00  0.100000D+01
   p     5 1.00
  0.266300D+02  0.146700D-01
  0.594800D+01  0.917640D-01
  0.174200D+01  0.298683D+00
  0.555000D+00  0.498487D+00
  0.172500D+00  0.337023D+00
   p     1 1.00
  0.174200D+01  0.100000D+01
   p     1 1.00
  0.555000D+00  0.100000D+01
   d     1 1.00
  0.165400D+01  0.100000D+01
   d     1 1.00
  0.469000D+00  0.100000D+01
   f     1 1.00
  0.109300D+01  0.100000D+01
  
  2  0
   s    10 1.00
  0.823600D+04  0.531000D-03
  0.123500D+04  0.410800D-02
  0.280800D+03  0.210870D-01
  0.792700D+02  0.818530D-01
  0.255900D+02  0.234817D+00
  0.899700D+01  0.434401D+00
  0.331900D+01  0.346129D+00
  0.905900D+00  0.393780D-01
  0.364300D+00 -0.898300D-02
  0.128500D+00  0.238500D-02
   s    10 1.00
  0.823600D+04 -0.113000D-03
  0.123500D+04 -0.878000D-03
  0.280800D+03 -0.454000D-02
  0.792700D+02 -0.181330D-01
  0.255900D+02 -0.557600D-01
  0.899700D+01 -0.126895D+00
  0.331900D+01 -0.170352D+00
  0.905900D+00  0.140382D+00
  0.364300D+00  0.598684D+00
  0.128500D+00  0.395389D+00
   s     1 1.00
  0.905900D+00  0.100000D+01
   s     1 1.00
  0.364300D+00  0.100000D+01
   p     5 1.00
  0.187100D+02  0.140310D-01
  0.413300D+01  0.868660D-01
  0.120000D+01  0.290216D+00
  0.382700D+00  0.501008D+00
  0.120900D+00  0.343406D+00
   p     1 1.00
  0.382700D+00  0.100000D+01
   p     1 1.00
  0.120900D+00  0.100000D+01
   d     1 1.00
  0.109700D+01  0.100000D+01
   d     1 1.00
  0.318000D+00  0.100000D+01
   f     1 1.00
  0.761000D+00  0.100000D+01
  
  3  0
   s    10 1.00
  0.823600D+04  0.531000D-03
  0.123500D+04  0.410800D-02
  0.280800D+03  0.210870D-01
  0.792700D+02  0.818530D-01
  0.255900D+02  0.234817D+00
  0.899700D+01  0.434401D+00
  0.331900D+01  0.346129D+00
  0.905900D+00  0.393780D-01
  0.364300D+00 -0.898300D-02
  0.128500D+00  0.238500D-02
   s    10 1.00
  0.823600D+04 -0.113000D-03
  0.123500D+04 -0.878000D-03
  0.280800D+03 -0.454000D-02
  0.792700D+02 -0.181330D-01
  0.255900D+02 -0.557600D-01
  0.899700D+01 -0.126895D+00
  0.331900D+01 -0.170352D+00
  0.905900D+00  0.140382D+00
  0.364300D+00  0.598684D+00
  0.128500D+00  0.395389D+00
   s     1 1.00
  0.905900D+00  0.100000D+01
   s     1 1.00
  0.364300D+00  0.100000D+01
   p     5 1.00
  0.187100D+02  0.140310D-01
  0.413300D+01  0.868660D-01
  0.120000D+01  0.290216D+00
  0.382700D+00  0.501008D+00
  0.120900D+00  0.343406D+00
   p     1 1.00
  0.382700D+00  0.100000D+01
   p     1 1.00
  0.120900D+00  0.100000D+01
   d     1 1.00
  0.109700D+01  0.100000D+01
   d     1 1.00
  0.318000D+00  0.100000D+01
   f     1 1.00
  0.761000D+00  0.100000D+01
  
  4  0
   s    10 1.00
  0.823600D+04  0.531000D-03
  0.123500D+04  0.410800D-02
  0.280800D+03  0.210870D-01
  0.792700D+02  0.818530D-01
  0.255900D+02  0.234817D+00
  0.899700D+01  0.434401D+00
  0.331900D+01  0.346129D+00
  0.905900D+00  0.393780D-01
  0.364300D+00 -0.898300D-02
  0.128500D+00  0.238500D-02
   s    10 1.00
  0.823600D+04 -0.113000D-03
  0.123500D+04 -0.878000D-03
  0.280800D+03 -0.454000D-02
  0.792700D+02 -0.181330D-01
  0.255900D+02 -0.557600D-01
  0.899700D+01 -0.126895D+00
  0.331900D+01 -0.170352D+00
  0.905900D+00  0.140382D+00
  0.364300D+00  0.598684D+00
  0.128500D+00  0.395389D+00
   s     1 1.00
  0.905900D+00  0.100000D+01
   s     1 1.00
  0.364300D+00  0.100000D+01
   p     5 1.00
  0.187100D+02  0.140310D-01
  0.413300D+01  0.868660D-01
  0.120000D+01  0.290216D+00
  0.382700D+00  0.501008D+00
  0.120900D+00  0.343406D+00
   p     1 1.00
  0.382700D+00  0.100000D+01
   p     1 1.00
  0.120900D+00  0.100000D+01
   d     1 1.00
  0.109700D+01  0.100000D+01
   d     1 1.00
  0.318000D+00  0.100000D+01
   f     1 1.00
  0.761000D+00  0.100000D+01
  
  5  0
   s    10 1.00
  0.823600D+04  0.531000D-03
  0.123500D+04  0.410800D-02
  0.280800D+03  0.210870D-01
  0.792700D+02  0.818530D-01
  0.255900D+02  0.234817D+00
  0.899700D+01  0.434401D+00
  0.331900D+01  0.346129D+00
  0.905900D+00  0.393780D-01
  0.364300D+00 -0.898300D-02
  0.128500D+00  0.238500D-02
   s    10 1.00
  0.823600D+04 -0.113000D-03
  0.123500D+04 -0.878000D-03
  0.280800D+03 -0.454000D-02
  0.792700D+02 -0.181330D-01
  0.255900D+02 -0.557600D-01
  0.899700D+01 -0.126895D+00
  0.331900D+01 -0.170352D+00
  0.905900D+00  0.140382D+00
  0.364300D+00  0.598684D+00
  0.128500D+00  0.395389D+00
   s     1 1.00
  0.905900D+00  0.100000D+01
   s     1 1.00
  0.364300D+00  0.100000D+01
   p     5 1.00
  0.187100D+02  0.140310D-01
  0.413300D+01  0.868660D-01
  0.120000D+01  0.290216D+00
  0.382700D+00  0.501008D+00
  0.120900D+00  0.343406D+00
   p     1 1.00
  0.382700D+00  0.100000D+01
   p     1 1.00
  0.120900D+00  0.100000D+01
   d     1 1.00
  0.109700D+01  0.100000D+01
   d     1 1.00
  0.318000D+00  0.100000D+01
   f     1 1.00
  0.761000D+00  0.100000D+01
  
  6  0
   s    10 1.00
  0.823600D+04  0.531000D-03
  0.123500D+04  0.410800D-02
  0.280800D+03  0.210870D-01
  0.792700D+02  0.818530D-01
  0.255900D+02  0.234817D+00
  0.899700D+01  0.434401D+00
  0.331900D+01  0.346129D+00
  0.905900D+00  0.393780D-01
  0.364300D+00 -0.898300D-02
  0.128500D+00  0.238500D-02
   s    10 1.00
  0.823600D+04 -0.113000D-03
  0.123500D+04 -0.878000D-03
  0.280800D+03 -0.454000D-02
  0.792700D+02 -0.181330D-01
  0.255900D+02 -0.557600D-01
  0.899700D+01 -0.126895D+00
  0.331900D+01 -0.170352D+00
  0.905900D+00  0.140382D+00
  0.364300D+00  0.598684D+00
  0.128500D+00  0.395389D+00
   s     1 1.00
  0.905900D+00  0.100000D+01
   s     1 1.00
  0.364300D+00  0.100000D+01
   p     5 1.00
  0.187100D+02  0.140310D-01
  0.413300D+01  0.868660D-01
  0.120000D+01  0.290216D+00
  0.382700D+00  0.501008D+00
  0.120900D+00  0.343406D+00
   p     1 1.00
  0.382700D+00  0.100000D+01
   p     1 1.00
  0.120900D+00  0.100000D+01
   d     1 1.00
  0.109700D+01  0.100000D+01
   d     1 1.00
  0.318000D+00  0.100000D+01
   f     1 1.00
  0.761000D+00  0.100000D+01
  
  7  0
   s    10 1.00
  0.823600D+04  0.531000D-03
  0.123500D+04  0.410800D-02
  0.280800D+03  0.210870D-01
  0.792700D+02  0.818530D-01
  0.255900D+02  0.234817D+00
  0.899700D+01  0.434401D+00
  0.331900D+01  0.346129D+00
  0.905900D+00  0.393780D-01
  0.364300D+00 -0.898300D-02
  0.128500D+00  0.238500D-02
   s    10 1.00
  0.823600D+04 -0.113000D-03
  0.123500D+04 -0.878000D-03
  0.280800D+03 -0.454000D-02
  0.792700D+02 -0.181330D-01
  0.255900D+02 -0.557600D-01
  0.899700D+01 -0.126895D+00
  0.331900D+01 -0.170352D+00
  0.905900D+00  0.140382D+00
  0.364300D+00  0.598684D+00
  0.128500D+00  0.395389D+00
   s     1 1.00
  0.905900D+00  0.100000D+01
   s     1 1.00
  0.364300D+00  0.100000D+01
   p     5 1.00
  0.187100D+02  0.140310D-01
  0.413300D+01  0.868660D-01
  0.120000D+01  0.290216D+00
  0.382700D+00  0.501008D+00
  0.120900D+00  0.343406D+00
   p     1 1.00
  0.382700D+00  0.100000D+01
   p     1 1.00
  0.120900D+00  0.100000D+01
   d     1 1.00
  0.109700D+01  0.100000D+01
   d     1 1.00
  0.318000D+00  0.100000D+01
   f     1 1.00
  0.761000D+00  0.100000D+01
  
  8  0
   s     4 1.00
  0.130100D+02  0.196850D-01
  0.196200D+01  0.137977D+00
  0.444600D+00  0.478148D+00
  0.122000D+00  0.501240D+00
   s     1 1.00
  0.122000D+00  0.100000D+01
   p     1 1.00
  0.727000D+00  0.100000D+01
  
  9  0
   s     4 1.00
  0.130100D+02  0.196850D-01
  0.196200D+01  0.137977D+00
  0.444600D+00  0.478148D+00
  0.122000D+00  0.501240D+00
   s     1 1.00
  0.122000D+00  0.100000D+01
   p     1 1.00
  0.727000D+00  0.100000D+01
  
 10  0
   s     4 1.00
  0.130100D+02  0.196850D-01
  0.196200D+01  0.137977D+00
  0.444600D+00  0.478148D+00
  0.122000D+00  0.501240D+00
   s     1 1.00
  0.122000D+00  0.100000D+01
   p     1 1.00
  0.727000D+00  0.100000D+01
  
 11  0
   s     4 1.00
  0.130100D+02  0.196850D-01
  0.196200D+01  0.137977D+00
  0.444600D+00  0.478148D+00
  0.122000D+00  0.501240D+00
   s     1 1.00
  0.122000D+00  0.100000D+01
   p     1 1.00
  0.727000D+00  0.100000D+01
  
 12  0
   s     4 1.00
  0.130100D+02  0.196850D-01
  0.196200D+01  0.137977D+00
  0.444600D+00  0.478148D+00
  0.122000D+00  0.501240D+00
   s     1 1.00
  0.122000D+00  0.100000D+01
   p     1 1.00
  0.727000D+00  0.100000D+01
  
 13  0
   s     4 1.00
  0.130100D+02  0.196850D-01
  0.196200D+01  0.137977D+00
  0.444600D+00  0.478148D+00
  0.122000D+00  0.501240D+00
   s     1 1.00
  0.122000D+00  0.100000D+01
   p     1 1.00
  0.727000D+00  0.100000D+01
  
 14  0
   s     4 1.00
  0.130100D+02  0.196850D-01
  0.196200D+01  0.137977D+00
  0.444600D+00  0.478148D+00
  0.122000D+00  0.501240D+00
   s     1 1.00
  0.122000D+00  0.100000D+01
   p     1 1.00
  0.727000D+00  0.100000D+01
  
[MO]
 Sym= __1_A__
 Ene=  0.000000000000000E+000
 Spin= Alpha
 Occup=    2.00000000000000     
                     1  6.321324553639256E-005
                     2  0.997763779623343     
                     3  1.227540546817051E-002
                     4  2.164561000769257E-003
                     5  1.006536039039262E-003
                     6  1.811204443383227E-006
                     7 -1.303719515349340E-006
                     8  3.280064481303580E-003
                     9 -1.608203065136064E-007
                    10  1.223032087058267E-007
                    11 -2.841614582757662E-004
                    12 -3.107436736332725E-007
                    13  1.920610108300815E-007
                    14 -5.613732859648080E-004
                    15  1.525897815486891E-004
                    16  1.569556156198145E-007
                    17 -1.676497608020508E-007
                    18  4.213227551184110E-005
                    19  8.660366524418621E-005
                    20  4.374821824164673E-005
                    21  3.173263596740779E-008
                    22  2.973805554449088E-007
                    23 -2.960326233100584E-004
                    24 -4.242630711555958E-004
                    25 -1.702917515631003E-004
                    26  2.059387302928117E-007
                    27 -9.993864986255475E-008
                    28 -1.847417156045170E-005
                    29 -6.216310645807816E-005
                    30  4.254489415873459E-008
                    31 -3.321074701429925E-008
                    32 -1.942166302999977E-004
                    33  2.742292331351863E-003
                    34  8.888341215463216E-005
                    35 -5.561323139987319E-004
                    36 -3.605590577851013E-006
                    37  2.593605353377534E-006
                    38 -6.553612972810900E-003
                    39 -1.088753865527768E-007
                    40  3.055815231587968E-008
                    41 -2.194487786510342E-004
                    42  2.028769711604603E-006
                    43 -1.410613247085152E-006
                    44  3.711840132754709E-003
                    45  3.786593512683462E-004
                    46  3.029793306111752E-007
                    47 -2.830923027923657E-007
                    48  9.999797029063328E-005
                    49 -7.635856015329867E-006
                    50  6.701859577341366E-004
                    51  6.382298479889963E-007
                    52 -6.766900342288200E-007
                    53  6.645693485443654E-005
                    54  9.535018094352964E-005
                    55 -5.145781228272802E-005
                    56  2.106905871055969E-008
                    57 -6.740937954110418E-008
                    58  4.513816401306686E-005
                    59 -1.583734226206039E-005
                    60 -2.283373684598750E-008
                    61 -3.611970850383871E-008
                    62 -1.855372568048867E-004
                    63 -1.679285209579528E-003
                    64 -2.535835793203712E-006
                    65  8.063148551002205E-004
                    66  1.708754323596956E-005
                    67 -8.760727081784675E-004
                    68  1.197557610135129E-003
                    69  4.296832137281520E-005
                    70  1.122295128964122E-004
                    71  1.416698214541949E-004
                    72  4.403234620127930E-005
                    73 -5.869789095214109E-004
                    74 -3.135856106360112E-004
                    75  9.118887724593652E-005
                    76  2.789342695237550E-006
                    77 -1.299969542911391E-005
                    78  3.273812775889358E-005
                    79  1.396917384513100E-006
                    80  3.876966110839517E-005
                    81 -1.407236905322992E-005
                    82 -1.091195106877751E-005
                    83  1.268989264888831E-005
                    84  2.731166366389532E-005
                    85 -7.418112644497828E-005
                    86  6.635870830178149E-006
                    87 -6.155515928482779E-006
                    88  2.130920424233762E-005
                    89 -4.160858483857616E-006
                    90  2.755012412371642E-006
                    91  2.224248717495720E-005
                    92 -1.855009019896620E-004
                    93 -1.679139897903216E-003
                    94 -2.372613563372172E-006
                    95  8.058049023642383E-004
                    96 -1.577502101407109E-005
                    97  8.751511922949709E-004
                    98  1.198373336919533E-003
                    99 -4.278731934302554E-005
                   100 -1.124856430921326E-004
                   101  1.410207855950972E-004
                   102 -4.433379761971950E-005
                   103  5.866510831797795E-004
                   104 -3.129022689449946E-004
                   105  9.118030910161196E-005
                   106 -2.649646222196203E-006
                   107  1.286536043598133E-005
                   108  3.274684677080918E-005
                   109  1.412454136885505E-006
                   110  3.831553096555631E-005
                   111  1.417685083404365E-005
                   112  1.070816674051387E-005
                   113  1.262573921630672E-005
                   114  2.730898612091401E-005
                   115 -7.414162266606408E-005
                   116 -6.474227173044468E-006
                   117  5.997082672269071E-006
                   118  2.127550833962802E-005
                   119 -4.116182195916400E-006
                   120 -2.780158915980909E-006
                   121 -2.226732835970771E-005
                   122 -1.524300093929799E-004
                   123  2.635314469665748E-005
                   124  7.590664212669641E-005
                   125  2.633951524873603E-004
                   126 -7.352180522104763E-005
                   127  5.145633018145571E-005
                   128 -8.486767962749618E-004
                   129 -4.242322204116026E-006
                   130  2.368956991688246E-005
                   131  2.054304609894733E-004
                   132  1.650038595283690E-005
                   133 -4.068294631976961E-005
                   134  5.487102289113643E-004
                   135 -9.071261798551666E-007
                   136  1.562209809502174E-006
                   137  5.521108858659739E-006
                   138 -2.115902327007606E-006
                   139  1.442986868148315E-006
                   140 -1.262210007595599E-004
                   141 -1.266047870383489E-005
                   142  9.627340156149690E-005
                   143  3.623050056114174E-005
                   144 -4.769298558693130E-006
                   145 -2.429338606778694E-005
                   146 -1.801777166068012E-007
                   147 -5.028514742340796E-006
                   148 -8.339392115583783E-006
                   149 -1.387301937787506E-006
                   150 -1.035648186995679E-006
                   151 -2.383600343679013E-006
                   152 -1.529093846540643E-004
                   153  2.465068484787069E-005
                   154  7.540239778303171E-005
                   155  2.665060798039665E-004
                   156  7.257632838640385E-005
                   157 -5.072605750859021E-005
                   158 -8.487692534903175E-004
                   159  4.531399689760620E-006
                   160 -2.426018663490362E-005
                   161  2.050901819492696E-004
                   162 -1.595276542721124E-005
                   163  4.078385702368410E-005
                   164  5.489417162181939E-004
                   165 -8.583500781871862E-007
                   166 -1.563537063767402E-006
                   167 -5.529896393147117E-006
                   168 -2.176012820809062E-006
                   169  1.427530306512319E-006
                   170 -1.262590401572998E-004
                   171  1.238536116003341E-005
                   172 -9.639628211864177E-005
                   173  3.610832553764432E-005
                   174 -4.889138540666057E-006
                   175 -2.421283046396430E-005
                   176  2.634763307644456E-007
                   177  4.999925764984972E-006
                   178 -8.383741126496318E-006
                   179 -1.391059305061673E-006
                   180  1.049848193025715E-006
                   181  2.400623032837173E-006
                   182 -1.260174965360009E-004
                   183 -3.433600889113461E-004
                   184  2.369372427886318E-005
                   185  2.376471425140750E-004
                   186 -3.422774538737075E-008
                   187  1.101050305128380E-007
                   188 -4.235680705755350E-005
                   189  5.125685033212617E-008
                   190 -4.874415015257399E-007
                   191  9.819346521569939E-006
                   192 -1.732872480387222E-008
                   193 -3.488536078301606E-008
                   194 -4.511591433600970E-005
                   195  2.151971745549667E-005
                   196  1.458836009789214E-008
                   197  7.390372002403640E-009
                   198  7.512830398861484E-006
                   199  2.303883502548071E-006
                   200  2.803282411560716E-005
                   201 -4.029568282021254E-009
                   202  2.063632587930980E-007
                   203  2.324576742750678E-005
                   204  4.138555110569498E-007
                   205 -1.039999800895552E-005
                   206  1.422684882578850E-008
                   207 -1.986124459554189E-008
                   208  1.899454756027131E-006
                   209  1.618403438537345E-006
                   210  5.119015481110345E-009
                   211  2.927444164935997E-008
                   212  5.809766859729492E-003
                   213 -3.203792830995867E-003
                   214  5.575742239680300E-004
                   215  2.759553453147622E-004
                   216  4.192536160612466E-004
                   217  5.809738213001148E-003
                   218 -3.203781391888034E-003
                   219 -5.571099596669745E-004
                   220 -2.762865515896030E-004
                   221  4.196476090005448E-004
                   222 -6.686664638220768E-004
                   223 -1.904324389197932E-004
                   224  4.475626000932154E-006
                   225 -3.798414530169132E-005
                   226 -4.535907855234948E-005
                   227 -6.687318492812849E-004
                   228 -1.900562185204024E-004
                   229 -4.525134246612567E-006
                   230  3.800117334914151E-005
                   231 -4.535066733446644E-005
                   232 -2.663689811597642E-004
                   233 -2.327690933113437E-004
                   234 -2.600776592841221E-006
                   235 -1.393250564883869E-005
                   236 -1.828725057980977E-006
                   237 -2.664129045532371E-004
                   238 -2.329215673164240E-004
                   239  2.593452415962393E-006
                   240  1.398050307020896E-005
                   241 -1.769916419394708E-006
                   242  1.101168367694238E-004
                   243 -2.542010705374431E-005
                   244  8.422204377695528E-009
                   245 -2.894611282672975E-008
                   246  1.347511151079823E-005
 Sym= __2_A__
 Ene=  0.000000000000000E+000
 Spin= Alpha
 Occup=    2.00000000000000     
                     1 -1.341507979861781E-005
                     2 -7.082595716863488E-005
                     3  1.894498875185081E-003
                     4  2.856868094314630E-005
                     5  1.117064943524262E-003
                     6  1.107529908734720E-006
                     7 -7.947003986156456E-007
                     8  2.029658384195968E-003
                     9 -5.827744783186247E-008
                    10  4.165358783505541E-008
                    11 -1.117542262988011E-004
                    12 -3.264216844077129E-009
                    13  8.740294202827982E-009
                    14 -1.186726521876915E-005
                    15  5.866385832318252E-005
                    16  4.064932283906873E-008
                    17 -3.364202024121929E-008
                    18  1.277187923298793E-005
                    19 -1.970988489446791E-005
                    20 -8.326736168117394E-005
                    21 -1.846939509099184E-008
                    22  3.046461328892138E-008
                    23 -4.677861471261490E-005
                    24  8.320014715383040E-005
                    25  1.924854643213974E-004
                    26 -2.279448089992286E-007
                    27  2.348925082816286E-007
                    28 -5.069910104316878E-005
                    29 -2.269782641119796E-005
                    30  4.512487534185276E-008
                    31  9.497196971424289E-009
                    32   1.00100096639405     
                    33  8.910164251302890E-003
                    34  2.645462974860412E-003
                    35 -8.040273651017501E-003
                    36 -1.697501972913526E-006
                    37  1.207261576560408E-006
                    38 -3.088645905179206E-003
                    39  7.265464311066913E-007
                    40 -5.146902458192385E-007
                    41  1.324945351338367E-003
                    42  1.978481027876776E-006
                    43 -1.476924687370958E-006
                    44  3.587582506809248E-003
                    45  2.606736941424259E-004
                    46  4.656264312759162E-007
                    47 -1.841025430172881E-008
                    48 -4.016659843958742E-004
                    49 -7.491133072603861E-006
                    50  4.145701674745681E-004
                    51 -6.973057427005030E-008
                    52 -6.400314538050296E-007
                    53  8.833698860509028E-004
                    54  4.953694273204639E-005
                    55  2.867235873049774E-004
                    56 -2.303439264328867E-007
                    57  3.870933310907052E-007
                    58 -1.789520449562680E-004
                    59  1.106751076079079E-006
                    60  1.200806595771304E-007
                    61  8.863909151836961E-008
                    62  1.309498687456693E-002
                    63 -1.795020348533155E-003
                    64 -2.843385700892009E-004
                    65  2.976528939567783E-003
                    66 -7.046551937692904E-006
                    67  2.544310032646560E-004
                    68 -1.171713617977548E-004
                    69 -2.439914798071311E-005
                    70  4.891945817877437E-004
                    71  5.037865146347954E-005
                    72  1.155045031584345E-004
                    73 -1.856563741437504E-003
                    74  1.288566655048345E-004
                    75 -2.555083044667123E-005
                    76  1.800622775756396E-006
                    77  2.304889754606207E-005
                    78  2.325912472138404E-005
                    79  1.913897468696945E-006
                    80  8.200072237286899E-004
                    81  4.453110361767580E-005
                    82 -4.853672058468677E-004
                    83 -2.361990474196102E-006
                    84 -1.405934167989271E-005
                    85  4.747869211141116E-005
                    86  1.182978911277410E-006
                    87  3.195014966141959E-005
                    88 -1.037804688905641E-004
                    89 -4.363665189045916E-006
                    90  7.125042493057029E-006
                    91  5.455264092615106E-005
                    92  1.309495856117827E-002
                    93 -1.795098675044339E-003
                    94 -2.843858233655422E-004
                    95  2.976727393853424E-003
                    96  6.918312298818218E-006
                    97 -2.543407696682193E-004
                    98 -1.174064010388431E-004
                    99  2.444889557657185E-005
                   100 -4.892242732337042E-004
                   101  5.011595044673197E-005
                   102 -1.153738056928774E-004
                   103  1.856609518164120E-003
                   104  1.302903537094032E-004
                   105 -2.556481546985158E-005
                   106 -1.873812630341631E-006
                   107 -2.304071463409498E-005
                   108  2.323764602346496E-005
                   109  1.890338076640711E-006
                   110  8.208332963404493E-004
                   111 -4.298414053426864E-005
                   112  4.843158709379793E-004
                   113 -2.006551247188326E-006
                   114 -1.349103461232211E-005
                   115  4.752040178475806E-005
                   116 -1.136974469117722E-006
                   117 -3.172111568395499E-005
                   118 -1.038817322860077E-004
                   119 -4.350574193281811E-006
                   120 -6.980775460721368E-006
                   121 -5.445791941879845E-005
                   122 -1.237858909453357E-004
                   123 -7.546111298031711E-004
                   124  2.315154550088967E-004
                   125 -2.162726176956754E-004
                   126 -1.064779715948138E-005
                   127 -4.885402909053324E-005
                   128 -1.853090044483792E-004
                   129  2.747820019991433E-005
                   130  5.997791395893461E-005
                   131  5.645482175510820E-004
                   132 -1.636120666769524E-005
                   133  3.311312994480113E-004
                   134  6.147665246201982E-004
                   135 -2.443199160125590E-005
                   136 -4.744769524834401E-006
                   137  4.878721264248623E-005
                   138  1.616422526181206E-005
                   139  5.967004604386782E-006
                   140 -3.111769708220785E-004
                   141 -8.194781139245550E-006
                   142 -2.839475795932425E-004
                   143 -3.330566897840156E-005
                   144 -3.296177753879303E-005
                   145 -8.186460879065793E-006
                   146  6.561079167666166E-006
                   147 -2.204231942351188E-005
                   148 -2.474582788147476E-005
                   149 -5.199015886486032E-006
                   150 -8.299158134869669E-008
                   151 -8.024465849815274E-006
                   152 -1.234992369565399E-004
                   153 -7.536625203733967E-004
                   154  2.316074528710750E-004
                   155 -2.173745593108576E-004
                   156  1.044648292994541E-005
                   157  4.898562576767770E-005
                   158 -1.852862410083287E-004
                   159 -2.687064009666530E-005
                   160 -6.034467179450034E-005