[Molden Format]
[Atoms] AU
  N     1    7     0.0000000000    0.0000000000   -4.2907334100        
  C     2    6     0.0000000000    0.0000000000   -1.7772236300        
  C     3    6     0.0000000000   -2.3389203600   -0.4111016300        
  C     4    6     0.0000000000    2.3389203600   -0.4111016300        
  C     5    6     0.0000000000   -2.2998668500    2.1639215300        
  C     6    6     0.0000000000    2.2998668500    2.1639215300        
  C     7    6     0.0000000000    0.0000000000    3.4755251800        
  H     8    1     0.0000000000   -2.2516208400   -5.6797945000        
  H     9    1     0.0000000000    1.6528040300   -5.3103747800        
  H    10    1     0.0000000000   -4.0745407300   -1.4447408500        
  H    11    1     0.0000000000    4.0745407300   -1.4447408500        
  H    12    1     0.0000000000   -4.0420632100    3.1963889500        
  H    13    1     0.0000000000    4.0420632100    3.1963889500        
  H    14    1     0.0000000000    0.0000000000    5.5020335600        
[5D]
[7F]
[GTO]
  1  0
   s    12 1.00
  0.114200D+05  0.172695D-04
  0.171200D+04  0.134411D-03
  0.389300D+03  0.694561D-03
  0.110000D+03  0.278531D-02
  0.355700D+02  0.863457D-02
  0.125400D+02  0.199805D-01
  0.464400D+01  0.262908D-01
  0.129300D+01 -0.243845D-01
  0.511800D+00 -0.924934D-01
  0.178700D+00 -0.339683D+00
  0.246240D-01  0.345111D+00
  0.112530D-01  0.752750D+00
   s    10 1.00
  0.114200D+05  0.523000D-03
  0.171200D+04  0.404500D-02
  0.389300D+03  0.207750D-01
  0.110000D+03  0.807269D-01
  0.355700D+02  0.233074D+00
  0.125400D+02  0.433501D+00
  0.464400D+01  0.347472D+00
  0.129300D+01  0.412620D-01
  0.511800D+00 -0.850799D-02
  0.178700D+00  0.238400D-02
   s    10 1.00
  0.114200D+05 -0.115000D-03
  0.171200D+04 -0.895000D-03
  0.389300D+03 -0.462400D-02
  0.110000D+03 -0.185280D-01
  0.355700D+02 -0.573390D-01
  0.125400D+02 -0.132076D+00
  0.464400D+01 -0.172510D+00
  0.129300D+01  0.151814D+00
  0.511800D+00  0.599944D+00
  0.178700D+00  0.387462D+00
   s     1 1.00
  0.129300D+01  0.100000D+01
   s     1 1.00
  0.178700D+00  0.100000D+01
   p     5 1.00
  0.266300D+02  0.146700D-01
  0.594800D+01  0.917640D-01
  0.174200D+01  0.298683D+00
  0.555000D+00  0.498487D+00
  0.172500D+00  0.337023D+00
   p     1 1.00
  0.174200D+01  0.100000D+01
   p     1 1.00
  0.555000D+00  0.100000D+01
   d     1 1.00
  0.165400D+01  0.100000D+01
   d     1 1.00
  0.469000D+00  0.100000D+01
   f     1 1.00
  0.109300D+01  0.100000D+01
  
  2  0
   s    10 1.00
  0.823600D+04  0.531000D-03
  0.123500D+04  0.410800D-02
  0.280800D+03  0.210870D-01
  0.792700D+02  0.818530D-01
  0.255900D+02  0.234817D+00
  0.899700D+01  0.434401D+00
  0.331900D+01  0.346129D+00
  0.905900D+00  0.393780D-01
  0.364300D+00 -0.898300D-02
  0.128500D+00  0.238500D-02
   s    10 1.00
  0.823600D+04 -0.113000D-03
  0.123500D+04 -0.878000D-03
  0.280800D+03 -0.454000D-02
  0.792700D+02 -0.181330D-01
  0.255900D+02 -0.557600D-01
  0.899700D+01 -0.126895D+00
  0.331900D+01 -0.170352D+00
  0.905900D+00  0.140382D+00
  0.364300D+00  0.598684D+00
  0.128500D+00  0.395389D+00
   s     1 1.00
  0.905900D+00  0.100000D+01
   s     1 1.00
  0.364300D+00  0.100000D+01
   p     5 1.00
  0.187100D+02  0.140310D-01
  0.413300D+01  0.868660D-01
  0.120000D+01  0.290216D+00
  0.382700D+00  0.501008D+00
  0.120900D+00  0.343406D+00
   p     1 1.00
  0.382700D+00  0.100000D+01
   p     1 1.00
  0.120900D+00  0.100000D+01
   d     1 1.00
  0.109700D+01  0.100000D+01
   d     1 1.00
  0.318000D+00  0.100000D+01
   f     1 1.00
  0.761000D+00  0.100000D+01
  
  3  0
   s    10 1.00
  0.823600D+04  0.531000D-03
  0.123500D+04  0.410800D-02
  0.280800D+03  0.210870D-01
  0.792700D+02  0.818530D-01
  0.255900D+02  0.234817D+00
  0.899700D+01  0.434401D+00
  0.331900D+01  0.346129D+00
  0.905900D+00  0.393780D-01
  0.364300D+00 -0.898300D-02
  0.128500D+00  0.238500D-02
   s    10 1.00
  0.823600D+04 -0.113000D-03
  0.123500D+04 -0.878000D-03
  0.280800D+03 -0.454000D-02
  0.792700D+02 -0.181330D-01
  0.255900D+02 -0.557600D-01
  0.899700D+01 -0.126895D+00
  0.331900D+01 -0.170352D+00
  0.905900D+00  0.140382D+00
  0.364300D+00  0.598684D+00
  0.128500D+00  0.395389D+00
   s     1 1.00
  0.905900D+00  0.100000D+01
   s     1 1.00
  0.364300D+00  0.100000D+01
   p     5 1.00
  0.187100D+02  0.140310D-01
  0.413300D+01  0.868660D-01
  0.120000D+01  0.290216D+00
  0.382700D+00  0.501008D+00
  0.120900D+00  0.343406D+00
   p     1 1.00
  0.382700D+00  0.100000D+01
   p     1 1.00
  0.120900D+00  0.100000D+01
   d     1 1.00
  0.109700D+01  0.100000D+01
   d     1 1.00
  0.318000D+00  0.100000D+01
   f     1 1.00
  0.761000D+00  0.100000D+01
  
  4  0
   s    10 1.00
  0.823600D+04  0.531000D-03
  0.123500D+04  0.410800D-02
  0.280800D+03  0.210870D-01
  0.792700D+02  0.818530D-01
  0.255900D+02  0.234817D+00
  0.899700D+01  0.434401D+00
  0.331900D+01  0.346129D+00
  0.905900D+00  0.393780D-01
  0.364300D+00 -0.898300D-02
  0.128500D+00  0.238500D-02
   s    10 1.00
  0.823600D+04 -0.113000D-03
  0.123500D+04 -0.878000D-03
  0.280800D+03 -0.454000D-02
  0.792700D+02 -0.181330D-01
  0.255900D+02 -0.557600D-01
  0.899700D+01 -0.126895D+00
  0.331900D+01 -0.170352D+00
  0.905900D+00  0.140382D+00
  0.364300D+00  0.598684D+00
  0.128500D+00  0.395389D+00
   s     1 1.00
  0.905900D+00  0.100000D+01
   s     1 1.00
  0.364300D+00  0.100000D+01
   p     5 1.00
  0.187100D+02  0.140310D-01
  0.413300D+01  0.868660D-01
  0.120000D+01  0.290216D+00
  0.382700D+00  0.501008D+00
  0.120900D+00  0.343406D+00
   p     1 1.00
  0.382700D+00  0.100000D+01
   p     1 1.00
  0.120900D+00  0.100000D+01
   d     1 1.00
  0.109700D+01  0.100000D+01
   d     1 1.00
  0.318000D+00  0.100000D+01
   f     1 1.00
  0.761000D+00  0.100000D+01
  
  5  0
   s    10 1.00
  0.823600D+04  0.531000D-03
  0.123500D+04  0.410800D-02
  0.280800D+03  0.210870D-01
  0.792700D+02  0.818530D-01
  0.255900D+02  0.234817D+00
  0.899700D+01  0.434401D+00
  0.331900D+01  0.346129D+00
  0.905900D+00  0.393780D-01
  0.364300D+00 -0.898300D-02
  0.128500D+00  0.238500D-02
   s    10 1.00
  0.823600D+04 -0.113000D-03
  0.123500D+04 -0.878000D-03
  0.280800D+03 -0.454000D-02
  0.792700D+02 -0.181330D-01
  0.255900D+02 -0.557600D-01
  0.899700D+01 -0.126895D+00
  0.331900D+01 -0.170352D+00
  0.905900D+00  0.140382D+00
  0.364300D+00  0.598684D+00
  0.128500D+00  0.395389D+00
   s     1 1.00
  0.905900D+00  0.100000D+01
   s     1 1.00
  0.364300D+00  0.100000D+01
   p     5 1.00
  0.187100D+02  0.140310D-01
  0.413300D+01  0.868660D-01
  0.120000D+01  0.290216D+00
  0.382700D+00  0.501008D+00
  0.120900D+00  0.343406D+00
   p     1 1.00
  0.382700D+00  0.100000D+01
   p     1 1.00
  0.120900D+00  0.100000D+01
   d     1 1.00
  0.109700D+01  0.100000D+01
   d     1 1.00
  0.318000D+00  0.100000D+01
   f     1 1.00
  0.761000D+00  0.100000D+01
  
  6  0
   s    10 1.00
  0.823600D+04  0.531000D-03
  0.123500D+04  0.410800D-02
  0.280800D+03  0.210870D-01
  0.792700D+02  0.818530D-01
  0.255900D+02  0.234817D+00
  0.899700D+01  0.434401D+00
  0.331900D+01  0.346129D+00
  0.905900D+00  0.393780D-01
  0.364300D+00 -0.898300D-02
  0.128500D+00  0.238500D-02
   s    10 1.00
  0.823600D+04 -0.113000D-03
  0.123500D+04 -0.878000D-03
  0.280800D+03 -0.454000D-02
  0.792700D+02 -0.181330D-01
  0.255900D+02 -0.557600D-01
  0.899700D+01 -0.126895D+00
  0.331900D+01 -0.170352D+00
  0.905900D+00  0.140382D+00
  0.364300D+00  0.598684D+00
  0.128500D+00  0.395389D+00
   s     1 1.00
  0.905900D+00  0.100000D+01
   s     1 1.00
  0.364300D+00  0.100000D+01
   p     5 1.00
  0.187100D+02  0.140310D-01
  0.413300D+01  0.868660D-01
  0.120000D+01  0.290216D+00
  0.382700D+00  0.501008D+00
  0.120900D+00  0.343406D+00
   p     1 1.00
  0.382700D+00  0.100000D+01
   p     1 1.00
  0.120900D+00  0.100000D+01
   d     1 1.00
  0.109700D+01  0.100000D+01
   d     1 1.00
  0.318000D+00  0.100000D+01
   f     1 1.00
  0.761000D+00  0.100000D+01
  
  7  0
   s    10 1.00
  0.823600D+04  0.531000D-03
  0.123500D+04  0.410800D-02
  0.280800D+03  0.210870D-01
  0.792700D+02  0.818530D-01
  0.255900D+02  0.234817D+00
  0.899700D+01  0.434401D+00
  0.331900D+01  0.346129D+00
  0.905900D+00  0.393780D-01
  0.364300D+00 -0.898300D-02
  0.128500D+00  0.238500D-02
   s    10 1.00
  0.823600D+04 -0.113000D-03
  0.123500D+04 -0.878000D-03
  0.280800D+03 -0.454000D-02
  0.792700D+02 -0.181330D-01
  0.255900D+02 -0.557600D-01
  0.899700D+01 -0.126895D+00
  0.331900D+01 -0.170352D+00
  0.905900D+00  0.140382D+00
  0.364300D+00  0.598684D+00
  0.128500D+00  0.395389D+00
   s     1 1.00
  0.905900D+00  0.100000D+01
   s     1 1.00
  0.364300D+00  0.100000D+01
   p     5 1.00
  0.187100D+02  0.140310D-01
  0.413300D+01  0.868660D-01
  0.120000D+01  0.290216D+00
  0.382700D+00  0.501008D+00
  0.120900D+00  0.343406D+00
   p     1 1.00
  0.382700D+00  0.100000D+01
   p     1 1.00
  0.120900D+00  0.100000D+01
   d     1 1.00
  0.109700D+01  0.100000D+01
   d     1 1.00
  0.318000D+00  0.100000D+01
   f     1 1.00
  0.761000D+00  0.100000D+01
  
  8  0
   s     4 1.00
  0.130100D+02  0.196850D-01
  0.196200D+01  0.137977D+00
  0.444600D+00  0.478148D+00
  0.122000D+00  0.501240D+00
   s     1 1.00
  0.122000D+00  0.100000D+01
   p     1 1.00
  0.727000D+00  0.100000D+01
  
  9  0
   s     4 1.00
  0.130100D+02  0.196850D-01
  0.196200D+01  0.137977D+00
  0.444600D+00  0.478148D+00
  0.122000D+00  0.501240D+00
   s     1 1.00
  0.122000D+00  0.100000D+01
   p     1 1.00
  0.727000D+00  0.100000D+01
  
 10  0
   s     4 1.00
  0.130100D+02  0.196850D-01
  0.196200D+01  0.137977D+00
  0.444600D+00  0.478148D+00
  0.122000D+00  0.501240D+00
   s     1 1.00
  0.122000D+00  0.100000D+01
   p     1 1.00
  0.727000D+00  0.100000D+01
  
 11  0
   s     4 1.00
  0.130100D+02  0.196850D-01
  0.196200D+01  0.137977D+00
  0.444600D+00  0.478148D+00
  0.122000D+00  0.501240D+00
   s     1 1.00
  0.122000D+00  0.100000D+01
   p     1 1.00
  0.727000D+00  0.100000D+01
  
 12  0
   s     4 1.00
  0.130100D+02  0.196850D-01
  0.196200D+01  0.137977D+00
  0.444600D+00  0.478148D+00
  0.122000D+00  0.501240D+00
   s     1 1.00
  0.122000D+00  0.100000D+01
   p     1 1.00
  0.727000D+00  0.100000D+01
  
 13  0
   s     4 1.00
  0.130100D+02  0.196850D-01
  0.196200D+01  0.137977D+00
  0.444600D+00  0.478148D+00
  0.122000D+00  0.501240D+00
   s     1 1.00
  0.122000D+00  0.100000D+01
   p     1 1.00
  0.727000D+00  0.100000D+01
  
 14  0
   s     4 1.00
  0.130100D+02  0.196850D-01
  0.196200D+01  0.137977D+00
  0.444600D+00  0.478148D+00
  0.122000D+00  0.501240D+00
   s     1 1.00
  0.122000D+00  0.100000D+01
   p     1 1.00
  0.727000D+00  0.100000D+01
  
[MO]
 Sym= __1_A__
 Ene=   1.00000000000000     
 Spin= Alpha
 Occup=    1.00000000000000     
                     1  3.430598270870433E-005
                     2  0.998417076878256     
                     3  2.952569830692487E-003
                     4  1.771496173272524E-003
                     5  3.942413364439289E-003
                     6  1.792107751332898E-012
                     7  2.498900309828447E-003
                     8  5.690752161960946E-003
                     9  4.142032862569818E-013
                    10 -4.060419921431597E-004
                    11 -4.083571428806285E-004
                    12 -2.218451219049919E-012
                    13 -1.610703221121542E-003
                    14 -1.145368450510631E-003
                    15  2.373117054345861E-004
                    16  3.382560991409609E-013
                    17 -7.579175283451784E-005
                    18 -2.136471918153768E-005
                    19  1.134538089147959E-012
                    20  1.077448365886359E-004
                    21 -3.796215917114393E-012
                    22  3.313597211475697E-004
                    23  3.876068450358408E-004
                    24 -5.218292923812941E-013
                    25 -1.338693158846071E-004
                    26 -2.202048510251067E-014
                    27  1.057197091668120E-005
                    28  3.615387272165180E-005
                    29  3.146261798643747E-012
                    30  1.055545071864401E-013
                    31 -1.253195389936658E-005
                    32 -3.070514778552595E-004
                    33  1.673616941560971E-003
                    34  2.164241870847002E-004
                    35 -2.573931767520716E-004
                    36 -5.042341775464109E-012
                    37 -1.717448657621055E-004
                    38 -5.019400547979652E-003
                    39  3.447846858946535E-012
                    40  3.191397130648223E-004
                    41  2.181446403393810E-004
                    42  6.341814074558362E-012
                    43 -1.362363451433762E-003
                    44  4.928306973354270E-003
                    45  2.371467962875445E-004
                    46  3.189746215581864E-013
                    47 -2.261605830109259E-005
                    48  1.079874946903673E-004
                    49 -1.538525059160818E-012
                    50  5.827591270157209E-005
                    51 -3.317139267460756E-012
                    52  4.814878390346137E-004
                    53 -3.200785447179776E-004
                    54 -3.537828974128019E-012
                    55 -1.247764207308852E-004
                    56  2.470897846557309E-012
                    57  1.256627483646794E-005
                    58  4.837698415000104E-005
                    59  2.775643141669725E-012
                    60  5.039477181403156E-013
                    61 -9.048158017166974E-006
                    62 -3.722528389772472E-004
                    63 -1.799429319160742E-003
                    64 -4.397480639317725E-005
                    65  1.485698870043302E-003
                    66 -2.973113957353904E-012
                    67 -6.333226036667722E-004
                    68  4.845660947308196E-004
                    69  4.353788514247031E-013
                    70  2.745154779159875E-004
                    71  7.253214848182611E-004
                    72 -8.518411099636938E-012
                    73 -1.378494918454508E-003
                    74  4.448033601706142E-004
                    75  8.227782770606005E-005
                    76  3.628972139905224E-012
                    77 -2.373905138860545E-005
                    78  9.905469230593180E-006
                    79 -9.481295470423090E-013
                    80 -7.345161469878939E-006
                    81 -1.695795952947211E-012
                    82  1.176076258602210E-004
                    83 -1.120655363275927E-004
                    84 -2.113877973748438E-012
                    85 -1.288703102303219E-004
                    86  1.135440191328749E-012
                    87 -2.885602469931064E-005
                    88  4.284155478669558E-005
                    89 -3.219764818695503E-012
                    90  6.113520571564185E-013
                    91  5.126200425111671E-006
                    92 -1.698445839732528E-004
                    93 -1.243744884555596E-003
                    94  1.579306171543170E-004
                    95  1.816365500830094E-005
                    96 -2.608108123519828E-012
                    97  6.249068523131476E-004
                    98  7.071220982016688E-004
                    99  9.653144146943963E-012
                   100  2.834950596921641E-004
                   101  4.361227646750240E-004
                   102 -6.506079268890289E-012
                   103  4.928842998822924E-004
                   104 -9.710941509844365E-004
                   105  6.900066542755989E-005
                   106 -1.053016745559219E-013
                   107 -8.569264159572658E-006
                   108  3.254718878691006E-005
                   109  5.135499312487756E-013
                   110  1.739833094289536E-005
                   111 -3.055107044204988E-012
                   112 -9.303528125562707E-005
                   113  9.385724645212513E-005
                   114 -1.685000263779067E-012
                   115 -6.131428117386902E-005
                   116 -4.660507137331110E-012
                   117  2.044180924222011E-005
                   118  5.068029733632592E-006
                   119 -1.350604453780931E-012
                   120  1.044825486271206E-012
                   121 -1.701877502082750E-005
                   122 -2.261639394584419E-004
                   123 -4.209576949323979E-004
                   124  1.471503630251046E-004
                   125  2.989378568533577E-004
                   126  1.682922929323172E-011
                   127  1.209051905197485E-006
                   128 -5.329024896573360E-004
                   129 -9.333990981643407E-012
                   130  1.368907808765068E-004
                   131  5.053623733349188E-004
                   132  8.717339782534307E-012
                   133  1.979164719058966E-004
                   134  1.505503742745229E-003
                   135 -3.573106007737506E-005
                   136  8.105415812433239E-013
                   137 -1.454100566486019E-006
                   138 -6.481774277927340E-006
                   139 -3.187726991492313E-012
                   140 -3.250147748521188E-004
                   141  4.626096517840883E-013
                   142  2.085005158883047E-004
                   143 -1.350478381557247E-006
                   144  6.836848047779886E-012
                   145 -6.142236108848539E-005
                   146  2.658044390440419E-012
                   147 -6.134436236675436E-006
                   148 -1.490769756235183E-005
                   149 -7.818406428518547E-013
                   150  1.752284948217403E-012
                   151 -9.819729392922837E-006
                   152 -1.723520866210841E-004
                   153 -2.164755841018262E-004
                   154  6.582211448623407E-005
                   155  3.119930068482086E-004
                   156 -8.954716886491846E-012
                   157 -2.547712528579501E-005
                   158 -5.349947143951721E-004
                   159  1.039948563181137E-012
                   160 -9.396848929391944E-006
                   161  1.556544212119107E-004
                   162  5.821163942576775E-012
                   163  5.514464948239296E-004
                   164  9.180113850956101E-005
                   165 -3.326336258404478E-006
                   166  1.963008046628872E-012
                   167  2.788051497426270E-006
                   168  8.047798895807010E-008
                   169  2.163909297903165E-012
                   170 -1.007033057258264E-004
                   171 -1.748216647883265E-012
                   172 -7.750294496693874E-005
                   173  3.903298576159894E-005
                   174  5.074512189830651E-012
                   175 -2.433995623226143E-005
                   176 -6.819363489550856E-013
                   177 -1.512538908278378E-005
                   178 -3.189735351105482E-006
                   179  2.039615190095010E-012
                   180 -3.673736298898179E-013
                   181  7.433160320035450E-007
                   182 -1.515621489678370E-004
                   183 -4.264822746234438E-004
                   184  4.360733980813099E-005
                   185  2.138995362937261E-004
                   186  6.757614430622811E-012
                   187 -2.479261784942338E-005
                   188 -4.933871175382608E-005
                   189 -5.055836142157980E-012
                   190  1.296417759591604E-004
                   191  4.898239335119684E-005
                   192 -9.066435074856526E-012
                   193  8.093007375425068E-004
                   194 -8.389259113615763E-005
                   195  1.388446899903351E-005
                   196  1.680619483696966E-012
                   197  3.219354382814175E-006
                   198  6.152161315501192E-006
                   199  2.167241493667512E-012
                   200  5.749144317709701E-005
                   201  7.661170770896591E-014
                   202 -1.102967744367179E-004
                   203  5.737134823286168E-005
                   204  3.263463544196514E-012
                   205 -7.896462316643852E-006
                   206  1.846533905880643E-012
                   207  6.371230090404488E-006
                   208 -9.292721641271486E-007
                   209 -2.114339838344316E-012
                   210  9.650253377407721E-013
                   211 -2.323227476846879E-006
                   212  1.961525507705675E-004
                   213 -2.049024073209291E-004
                   214 -5.182459627020557E-013
                   215  2.110471482810846E-004
                   216  1.907543198515414E-004
                   217  1.762613969402010E-003
                   218 -1.561486266840322E-003
                   219 -2.072978307863664E-012
                   220 -3.791078821272231E-004
                   221  2.472550317331429E-004
                   222 -4.163721625825206E-004
                   223 -5.480501794764457E-004
                   224  2.701256259708644E-012
                   225  5.706201616090922E-008
                   226 -5.574953202042810E-005
                   227 -3.682021976600889E-004
                   228 -3.220969833043497E-004
                   229  1.185177837882588E-012
                   230 -1.313118586882085E-006
                   231 -2.844615180194190E-005
                   232 -9.991923398128333E-005
                   233 -4.812069777408365E-004
                   234  2.254965290549688E-012
                   235  2.558550999530059E-006
                   236  1.527197820916520E-006
                   237 -1.629132181729663E-004
                   238 -4.199018547421434E-004
                   239 -5.085441833043680E-012
                   240  3.768962981250593E-006
                   241  2.230722575621292E-006
                   242  2.454997846220896E-005
                   243 -6.740232989601836E-005
                   244 -9.563890965163592E-013
                   245 -4.749162626782737E-007
                   246  1.883992660433667E-005
 Sym= __2_A__
 Ene=   2.00000000000000     
 Spin= Alpha
 Occup=    1.00000000000000     
                     1 -5.148908333245087E-005
                     2 -3.164705355126492E-004
                     3  2.667733189879713E-003
                     4  1.402418560413454E-004
                     5  1.321987443740293E-003
                     6 -1.188809169659896E-011
                     7 -2.664450041563144E-004
                     8  3.161144558037113E-003
                     9  4.296408567572005E-012
                    10 -4.848371952437477E-005
                    11 -8.543884842477541E-005
                    12  7.158427152895220E-012
                    13  1.128922692943071E-004
                    14 -4.890591955462419E-004
                    15  3.600645622476612E-005
                    16 -5.582907706352282E-013
                    17 -1.891017941486866E-006
                    18  6.209767586144997E-005
                    19 -8.697973364266356E-013
                    20 -1.428277491993961E-004
                    21 -1.288586899486056E-012
                    22  2.592706622895217E-005
                    23 -2.412431605596244E-004
                    24 -2.167329013913646E-012
                    25  1.693185745836555E-004
                    26  1.254248222106928E-012
                    27 -1.465214294055062E-005
                    28 -1.183753022053165E-005
                    29 -1.170484769025684E-012
                    30 -1.448727972954251E-012
                    31 -1.653470823227335E-005
                    32   1.00102143975323     
                    33  9.419190815737050E-003
                    34  2.718264490554647E-003
                    35 -8.024635495091264E-003
                    36 -4.969408989255152E-012
                    37 -9.151142524263994E-005
                    38 -3.888717723800551E-003
                    39  1.704557500940125E-012
                    40  5.796116898530693E-005
                    41  5.890124650200160E-004
                    42  8.567514461615820E-012
                    43  8.660636949218817E-005
                    44  4.357846282437077E-003
                    45  4.687448600188467E-004
                    46 -1.124391448495107E-013
                    47 -8.750949032211006E-006
                    48 -4.032144024847344E-004
                    49 -2.748593164832005E-012
                    50  5.559447274978471E-004
                    51  6.355312141242218E-012
                    52  7.422618967104514E-005
                    53  9.447657398011086E-004
                    54 -6.371582459835247E-012
                    55  3.834622683341371E-004
                    56 -1.924719307158253E-012
                    57 -3.414142929984448E-006
                    58 -1.833952333257868E-004
                    59 -2.536679549177269E-012
                    60 -7.586221846645302E-013
                    61 -8.622486734412705E-007
                    62  8.537503858297548E-003
                    63 -2.083989961178906E-003
                    64 -2.869596684167472E-004
                    65  3.082762929929326E-003
                    66 -3.201447303915248E-012
                    67  1.534537274655518E-005
                    68  6.612326130096232E-005
                    69  1.822557242359943E-012
                    70  7.078667666870600E-004
                    71 -1.252144750009053E-005
                    72  1.497500515980583E-011
                    73 -2.069581056218709E-003
                    74  5.595756801659712E-005
                    75 -9.748647586208466E-006
                    76  1.161694723747754E-012
                    77  3.244779472073654E-006
                    78  2.610515763996828E-005
                    79  1.771612513081537E-012
                    80  7.145384784128822E-004
                    81  1.109701391390143E-011
                    82 -3.887358560800558E-004
                    83 -4.836592938596604E-005
                    84 -1.113293763881658E-011
                    85  7.549399916723155E-005
                    86  1.559555607164058E-012
                    87  4.451209368828387E-005
                    88 -1.321426186893051E-004
                    89 -1.601047183137161E-012
                    90 -2.410714670021388E-013
                    91  4.822114320535912E-005
                    92  9.073244193197938E-003
                    93 -2.116861622868805E-003
                    94 -2.812505714175019E-004
                    95  3.045296107364857E-003
                    96  4.343376044301332E-012
                    97  1.096558322260413E-005
                    98  7.854187666624968E-005
                    99  2.403826185662583E-013
                   100 -6.467519477910197E-004
                   101  2.873764883496298E-005
                   102 -1.173448053619014E-011
                   103  2.101104883038136E-003
                   104  9.818308542336018E-005
                   105 -1.191377652280147E-005
                   106 -1.026897718831833E-012
                   107 -9.591301776945794E-006
                   108  2.901674573066432E-005
                   109  1.292364973474969E-012
                   110  7.603897345518334E-004
                   111 -1.126497106748665E-011
                   112  3.916082114832347E-004
                   113 -3.230158492213638E-005
                   114  5.707199589537503E-013
                   115  7.379640397877225E-005
                   116 -1.074722309453339E-012
                   117 -4.341780672275889E-005
                   118 -1.303873029788995E-004
                   119 -9.509407015819193E-013
                   120 -2.045777205005435E-012
                   121 -4.506426722767692E-005
                   122 -1.988110584711077E-004
                   123 -7.002618154767344E-004
                   124  2.227809644564337E-004
                   125 -8.941300377365635E-005
                   126  2.430698062170990E-013
                   127 -5.657634447635924E-006
                   128 -3.161971795575365E-004
                   129  7.034836720676237E-012
                   130 -5.324577606666401E-005
                   131  5.247416851946963E-004
                   132 -1.628277693329870E-011
                   133  3.014884411178841E-004
                   134  7.438667885362993E-004
                   135 -1.234951674857771E-005
                   136 -4.265864688558253E-012
                   137  5.246644318131146E-005
                   138  1.411593549197610E-005
                   139  1.682847291626498E-012
                   140 -2.772124603615675E-004
                   141  2.262408786310381E-011
                   142 -1.872723509568257E-004
                   143 -3.081144144203482E-006
                   144  1.241144178085711E-011
                   145  1.942470196195353E-006
                   146 -5.984869087917277E-013
                   147 -4.705925585819341E-005
                   148 -4.327392536687106E-005
                   149  3.134119643273417E-012
                   150  7.053656627154692E-013
                   151 -4.982388772141081E-006
                   152 -1.668659012742566E-004
                   153 -7.008644132134469E-004
                   154  2.279413268413347E-004
                   155 -1.220212843357879E-004
                   156 -2.991026573219191E-012
                   157  4.941555882555987E-006
                   158 -3.203129768386444E-004
                   159 -2.221305629972490E-014
                   160  3.079818799097578E-005