[Molden Format]
[Atoms] AU
  N     1    7    -0.0028491700   -0.0007783900   -4.3187346300        
  C     2    6    -0.0018539800   -0.0019634900   -1.7677567300        
  C     3    6     0.0654760000   -2.3356455500   -0.4132344200        
  C     4    6    -0.0681262800    2.3304590300   -0.4110146200        
  C     5    6     0.1057681000   -2.2995661200    2.1683676300        
  C     6    6    -0.1064042200    2.2919809900    2.1705834500        
  C     7    6     0.0001907800   -0.0043985300    3.4738657600        
  H     8    1    -0.9616958900   -1.3601021500   -5.3321461200        
  H     9    1     0.9552070500    1.3594867100   -5.3316305200        
  H    10    1     0.1529208800   -4.0660124100   -1.4516363100        
  H    11    1    -0.1563806600    4.0617899100   -1.4477398100        
  H    12    1     0.2194913000   -4.0379916300    3.2009119500        
  H    13    1    -0.2193211500    4.0294463500    3.2048309300        
  H    14    1     0.0009816700   -0.0053403900    5.5012749400        
[5D]
[7F]
[GTO]
  1  0
   s    12 1.00
  0.114200D+05  0.172695D-04
  0.171200D+04  0.134411D-03
  0.389300D+03  0.694561D-03
  0.110000D+03  0.278531D-02
  0.355700D+02  0.863457D-02
  0.125400D+02  0.199805D-01
  0.464400D+01  0.262908D-01
  0.129300D+01 -0.243845D-01
  0.511800D+00 -0.924934D-01
  0.178700D+00 -0.339683D+00
  0.246240D-01  0.345111D+00
  0.112530D-01  0.752750D+00
   s    10 1.00
  0.114200D+05  0.523000D-03
  0.171200D+04  0.404500D-02
  0.389300D+03  0.207750D-01
  0.110000D+03  0.807269D-01
  0.355700D+02  0.233074D+00
  0.125400D+02  0.433501D+00
  0.464400D+01  0.347472D+00
  0.129300D+01  0.412620D-01
  0.511800D+00 -0.850799D-02
  0.178700D+00  0.238400D-02
   s    10 1.00
  0.114200D+05 -0.115000D-03
  0.171200D+04 -0.895000D-03
  0.389300D+03 -0.462400D-02
  0.110000D+03 -0.185280D-01
  0.355700D+02 -0.573390D-01
  0.125400D+02 -0.132076D+00
  0.464400D+01 -0.172510D+00
  0.129300D+01  0.151814D+00
  0.511800D+00  0.599944D+00
  0.178700D+00  0.387462D+00
   s     1 1.00
  0.129300D+01  0.100000D+01
   s     1 1.00
  0.178700D+00  0.100000D+01
   p     5 1.00
  0.266300D+02  0.146700D-01
  0.594800D+01  0.917640D-01
  0.174200D+01  0.298683D+00
  0.555000D+00  0.498487D+00
  0.172500D+00  0.337023D+00
   p     1 1.00
  0.174200D+01  0.100000D+01
   p     1 1.00
  0.555000D+00  0.100000D+01
   d     1 1.00
  0.165400D+01  0.100000D+01
   d     1 1.00
  0.469000D+00  0.100000D+01
   f     1 1.00
  0.109300D+01  0.100000D+01
  
  2  0
   s    10 1.00
  0.823600D+04  0.531000D-03
  0.123500D+04  0.410800D-02
  0.280800D+03  0.210870D-01
  0.792700D+02  0.818530D-01
  0.255900D+02  0.234817D+00
  0.899700D+01  0.434401D+00
  0.331900D+01  0.346129D+00
  0.905900D+00  0.393780D-01
  0.364300D+00 -0.898300D-02
  0.128500D+00  0.238500D-02
   s    10 1.00
  0.823600D+04 -0.113000D-03
  0.123500D+04 -0.878000D-03
  0.280800D+03 -0.454000D-02
  0.792700D+02 -0.181330D-01
  0.255900D+02 -0.557600D-01
  0.899700D+01 -0.126895D+00
  0.331900D+01 -0.170352D+00
  0.905900D+00  0.140382D+00
  0.364300D+00  0.598684D+00
  0.128500D+00  0.395389D+00
   s     1 1.00
  0.905900D+00  0.100000D+01
   s     1 1.00
  0.364300D+00  0.100000D+01
   p     5 1.00
  0.187100D+02  0.140310D-01
  0.413300D+01  0.868660D-01
  0.120000D+01  0.290216D+00
  0.382700D+00  0.501008D+00
  0.120900D+00  0.343406D+00
   p     1 1.00
  0.382700D+00  0.100000D+01
   p     1 1.00
  0.120900D+00  0.100000D+01
   d     1 1.00
  0.109700D+01  0.100000D+01
   d     1 1.00
  0.318000D+00  0.100000D+01
   f     1 1.00
  0.761000D+00  0.100000D+01
  
  3  0
   s    10 1.00
  0.823600D+04  0.531000D-03
  0.123500D+04  0.410800D-02
  0.280800D+03  0.210870D-01
  0.792700D+02  0.818530D-01
  0.255900D+02  0.234817D+00
  0.899700D+01  0.434401D+00
  0.331900D+01  0.346129D+00
  0.905900D+00  0.393780D-01
  0.364300D+00 -0.898300D-02
  0.128500D+00  0.238500D-02
   s    10 1.00
  0.823600D+04 -0.113000D-03
  0.123500D+04 -0.878000D-03
  0.280800D+03 -0.454000D-02
  0.792700D+02 -0.181330D-01
  0.255900D+02 -0.557600D-01
  0.899700D+01 -0.126895D+00
  0.331900D+01 -0.170352D+00
  0.905900D+00  0.140382D+00
  0.364300D+00  0.598684D+00
  0.128500D+00  0.395389D+00
   s     1 1.00
  0.905900D+00  0.100000D+01
   s     1 1.00
  0.364300D+00  0.100000D+01
   p     5 1.00
  0.187100D+02  0.140310D-01
  0.413300D+01  0.868660D-01
  0.120000D+01  0.290216D+00
  0.382700D+00  0.501008D+00
  0.120900D+00  0.343406D+00
   p     1 1.00
  0.382700D+00  0.100000D+01
   p     1 1.00
  0.120900D+00  0.100000D+01
   d     1 1.00
  0.109700D+01  0.100000D+01
   d     1 1.00
  0.318000D+00  0.100000D+01
   f     1 1.00
  0.761000D+00  0.100000D+01
  
  4  0
   s    10 1.00
  0.823600D+04  0.531000D-03
  0.123500D+04  0.410800D-02
  0.280800D+03  0.210870D-01
  0.792700D+02  0.818530D-01
  0.255900D+02  0.234817D+00
  0.899700D+01  0.434401D+00
  0.331900D+01  0.346129D+00
  0.905900D+00  0.393780D-01
  0.364300D+00 -0.898300D-02
  0.128500D+00  0.238500D-02
   s    10 1.00
  0.823600D+04 -0.113000D-03
  0.123500D+04 -0.878000D-03
  0.280800D+03 -0.454000D-02
  0.792700D+02 -0.181330D-01
  0.255900D+02 -0.557600D-01
  0.899700D+01 -0.126895D+00
  0.331900D+01 -0.170352D+00
  0.905900D+00  0.140382D+00
  0.364300D+00  0.598684D+00
  0.128500D+00  0.395389D+00
   s     1 1.00
  0.905900D+00  0.100000D+01
   s     1 1.00
  0.364300D+00  0.100000D+01
   p     5 1.00
  0.187100D+02  0.140310D-01
  0.413300D+01  0.868660D-01
  0.120000D+01  0.290216D+00
  0.382700D+00  0.501008D+00
  0.120900D+00  0.343406D+00
   p     1 1.00
  0.382700D+00  0.100000D+01
   p     1 1.00
  0.120900D+00  0.100000D+01
   d     1 1.00
  0.109700D+01  0.100000D+01
   d     1 1.00
  0.318000D+00  0.100000D+01
   f     1 1.00
  0.761000D+00  0.100000D+01
  
  5  0
   s    10 1.00
  0.823600D+04  0.531000D-03
  0.123500D+04  0.410800D-02
  0.280800D+03  0.210870D-01
  0.792700D+02  0.818530D-01
  0.255900D+02  0.234817D+00
  0.899700D+01  0.434401D+00
  0.331900D+01  0.346129D+00
  0.905900D+00  0.393780D-01
  0.364300D+00 -0.898300D-02
  0.128500D+00  0.238500D-02
   s    10 1.00
  0.823600D+04 -0.113000D-03
  0.123500D+04 -0.878000D-03
  0.280800D+03 -0.454000D-02
  0.792700D+02 -0.181330D-01
  0.255900D+02 -0.557600D-01
  0.899700D+01 -0.126895D+00
  0.331900D+01 -0.170352D+00
  0.905900D+00  0.140382D+00
  0.364300D+00  0.598684D+00
  0.128500D+00  0.395389D+00
   s     1 1.00
  0.905900D+00  0.100000D+01
   s     1 1.00
  0.364300D+00  0.100000D+01
   p     5 1.00
  0.187100D+02  0.140310D-01
  0.413300D+01  0.868660D-01
  0.120000D+01  0.290216D+00
  0.382700D+00  0.501008D+00
  0.120900D+00  0.343406D+00
   p     1 1.00
  0.382700D+00  0.100000D+01
   p     1 1.00
  0.120900D+00  0.100000D+01
   d     1 1.00
  0.109700D+01  0.100000D+01
   d     1 1.00
  0.318000D+00  0.100000D+01
   f     1 1.00
  0.761000D+00  0.100000D+01
  
  6  0
   s    10 1.00
  0.823600D+04  0.531000D-03
  0.123500D+04  0.410800D-02
  0.280800D+03  0.210870D-01
  0.792700D+02  0.818530D-01
  0.255900D+02  0.234817D+00
  0.899700D+01  0.434401D+00
  0.331900D+01  0.346129D+00
  0.905900D+00  0.393780D-01
  0.364300D+00 -0.898300D-02
  0.128500D+00  0.238500D-02
   s    10 1.00
  0.823600D+04 -0.113000D-03
  0.123500D+04 -0.878000D-03
  0.280800D+03 -0.454000D-02
  0.792700D+02 -0.181330D-01
  0.255900D+02 -0.557600D-01
  0.899700D+01 -0.126895D+00
  0.331900D+01 -0.170352D+00
  0.905900D+00  0.140382D+00
  0.364300D+00  0.598684D+00
  0.128500D+00  0.395389D+00
   s     1 1.00
  0.905900D+00  0.100000D+01
   s     1 1.00
  0.364300D+00  0.100000D+01
   p     5 1.00
  0.187100D+02  0.140310D-01
  0.413300D+01  0.868660D-01
  0.120000D+01  0.290216D+00
  0.382700D+00  0.501008D+00
  0.120900D+00  0.343406D+00
   p     1 1.00
  0.382700D+00  0.100000D+01
   p     1 1.00
  0.120900D+00  0.100000D+01
   d     1 1.00
  0.109700D+01  0.100000D+01
   d     1 1.00
  0.318000D+00  0.100000D+01
   f     1 1.00
  0.761000D+00  0.100000D+01
  
  7  0
   s    10 1.00
  0.823600D+04  0.531000D-03
  0.123500D+04  0.410800D-02
  0.280800D+03  0.210870D-01
  0.792700D+02  0.818530D-01
  0.255900D+02  0.234817D+00
  0.899700D+01  0.434401D+00
  0.331900D+01  0.346129D+00
  0.905900D+00  0.393780D-01
  0.364300D+00 -0.898300D-02
  0.128500D+00  0.238500D-02
   s    10 1.00
  0.823600D+04 -0.113000D-03
  0.123500D+04 -0.878000D-03
  0.280800D+03 -0.454000D-02
  0.792700D+02 -0.181330D-01
  0.255900D+02 -0.557600D-01
  0.899700D+01 -0.126895D+00
  0.331900D+01 -0.170352D+00
  0.905900D+00  0.140382D+00
  0.364300D+00  0.598684D+00
  0.128500D+00  0.395389D+00
   s     1 1.00
  0.905900D+00  0.100000D+01
   s     1 1.00
  0.364300D+00  0.100000D+01
   p     5 1.00
  0.187100D+02  0.140310D-01
  0.413300D+01  0.868660D-01
  0.120000D+01  0.290216D+00
  0.382700D+00  0.501008D+00
  0.120900D+00  0.343406D+00
   p     1 1.00
  0.382700D+00  0.100000D+01
   p     1 1.00
  0.120900D+00  0.100000D+01
   d     1 1.00
  0.109700D+01  0.100000D+01
   d     1 1.00
  0.318000D+00  0.100000D+01
   f     1 1.00
  0.761000D+00  0.100000D+01
  
  8  0
   s     4 1.00
  0.130100D+02  0.196850D-01
  0.196200D+01  0.137977D+00
  0.444600D+00  0.478148D+00
  0.122000D+00  0.501240D+00
   s     1 1.00
  0.122000D+00  0.100000D+01
   p     1 1.00
  0.727000D+00  0.100000D+01
  
  9  0
   s     4 1.00
  0.130100D+02  0.196850D-01
  0.196200D+01  0.137977D+00
  0.444600D+00  0.478148D+00
  0.122000D+00  0.501240D+00
   s     1 1.00
  0.122000D+00  0.100000D+01
   p     1 1.00
  0.727000D+00  0.100000D+01
  
 10  0
   s     4 1.00
  0.130100D+02  0.196850D-01
  0.196200D+01  0.137977D+00
  0.444600D+00  0.478148D+00
  0.122000D+00  0.501240D+00
   s     1 1.00
  0.122000D+00  0.100000D+01
   p     1 1.00
  0.727000D+00  0.100000D+01
  
 11  0
   s     4 1.00
  0.130100D+02  0.196850D-01
  0.196200D+01  0.137977D+00
  0.444600D+00  0.478148D+00
  0.122000D+00  0.501240D+00
   s     1 1.00
  0.122000D+00  0.100000D+01
   p     1 1.00
  0.727000D+00  0.100000D+01
  
 12  0
   s     4 1.00
  0.130100D+02  0.196850D-01
  0.196200D+01  0.137977D+00
  0.444600D+00  0.478148D+00
  0.122000D+00  0.501240D+00
   s     1 1.00
  0.122000D+00  0.100000D+01
   p     1 1.00
  0.727000D+00  0.100000D+01
  
 13  0
   s     4 1.00
  0.130100D+02  0.196850D-01
  0.196200D+01  0.137977D+00
  0.444600D+00  0.478148D+00
  0.122000D+00  0.501240D+00
   s     1 1.00
  0.122000D+00  0.100000D+01
   p     1 1.00
  0.727000D+00  0.100000D+01
  
 14  0
   s     4 1.00
  0.130100D+02  0.196850D-01
  0.196200D+01  0.137977D+00
  0.444600D+00  0.478148D+00
  0.122000D+00  0.501240D+00
   s     1 1.00
  0.122000D+00  0.100000D+01
   p     1 1.00
  0.727000D+00  0.100000D+01
  
[MO]
 Sym= __1_A__
 Ene=   1.00000000000000     
 Spin= Alpha
 Occup=    1.00000000000000     
                     1  4.603850191877321E-005
                     2  0.997996731094026     
                     3  9.246882432626622E-003
                     4  2.091836499929244E-003
                     5  1.622218022700316E-003
                     6  1.699578350356545E-006
                     7 -2.024479370850193E-006
                     8  4.337218074723426E-003
                     9 -7.265167222212594E-008
                    10  9.187099237376213E-008
                    11 -1.767807947464540E-004
                    12 -1.278971514537323E-007
                    13  1.193074552244855E-007
                    14 -3.210364140341744E-004
                    15  2.266718123798096E-004
                    16  2.112405149943115E-007
                    17 -1.896727567277317E-007
                    18 -5.115664559570090E-005
                    19  8.056955034475690E-005
                    20  1.193645220397348E-004
                    21 -2.249697669381522E-007
                    22 -4.006206548880701E-008
                    23  2.174562089290704E-004
                    24 -4.652924807251753E-004
                    25 -1.824135799244688E-004
                    26  1.024962743214935E-007
                    27 -2.128541005310945E-007
                    28  5.223223056249272E-005
                    29 -5.361586695476246E-005
                    30  6.213724264299918E-009
                    31 -5.630441347904694E-008
                    32 -2.818669191562747E-004
                    33  2.766306336927073E-003
                    34  1.408723230373876E-004
                    35 -3.987459881736418E-004
                    36 -2.655140165171241E-006
                    37  3.174249294688887E-006
                    38 -6.793859500556369E-003
                    39  6.779526632107708E-008
                    40 -1.232160342670234E-007
                    41  1.564581806114102E-004
                    42  1.657934287846582E-006
                    43 -1.939082504197116E-006
                    44  4.268230758155019E-003
                    45  3.487252068187575E-004
                    46  1.835651016802551E-007
                    47 -3.206446088756432E-007
                    48  1.179885014639996E-004
                    49 -1.337120353453891E-005
                    50  3.042414413061118E-004
                    51  3.430225951086150E-007
                    52 -3.259913211109451E-007
                    53 -2.197153930454832E-004
                    54  1.119775954913411E-004
                    55 -9.410283514105874E-005
                    56  3.677789544532669E-008
                    57 -1.419500120810754E-007
                    58  6.184861449776223E-005
                    59 -2.143797000250048E-005
                    60 -1.753154924715177E-008
                    61 -4.918367710140907E-008
                    62 -2.055504552312005E-004
                    63 -1.654326309440462E-003
                    64  2.864757048563099E-005
                    65  6.859956814748693E-004
                    66 -1.983414633473875E-005
                    67 -8.427741298933310E-004
                    68  1.026022053094586E-003
                    69  5.589175066868833E-005
                    70  2.789656626184692E-005
                    71  4.307384279106270E-004
                    72  3.856140607991923E-005
                    73 -6.602319379339160E-004
                    74 -2.052862064428823E-004
                    75  8.874411192644087E-005
                    76  2.804133983635517E-006
                    77 -1.127384046317756E-005
                    78  3.487794219747384E-005
                    79 -1.727848883667370E-007
                    80  2.452154574766699E-005
                    81 -3.317555404299582E-005
                    82  1.124903395551234E-004
                    83 -5.113794390016770E-006
                    84  3.324292875457056E-005
                    85 -8.642441834532053E-005
                    86  5.021313464910251E-006
                    87 -1.785589231477368E-005
                    88  2.170801062490312E-005
                    89 -7.258382673903256E-006
                    90  2.166759579276960E-006
                    91  1.750804902079586E-005
                    92 -2.055143821283845E-004
                    93 -1.654181587629602E-003
                    94  2.881132222470756E-005
                    95  6.854612668252361E-004
                    96  2.063261397471005E-005
                    97  8.418394961384150E-004
                    98  1.026896886269709E-003
                    99 -5.554463929863007E-005
                   100 -2.843492864630162E-005
                   101  4.301362334683751E-004
                   102 -3.869174936955728E-005
                   103  6.598537917766635E-004
                   104 -2.044798240384512E-004
                   105  8.873369237142269E-005
                   106 -2.711127485341795E-006
                   107  1.111559278078311E-005
                   108  3.488811648465710E-005
                   109 -1.616782678185518E-007
                   110  2.385896392846283E-005
                   111  3.325330679621852E-005
                   112 -1.126574909411576E-004
                   113 -5.280358579817750E-006
                   114  3.312053976939559E-005
                   115 -8.640711817671306E-005
                   116 -4.892140246518477E-006
                   117  1.763850844082123E-005
                   118  2.170159063226584E-005
                   119 -7.215587458214491E-006
                   120 -2.179612214898187E-006
                   121 -1.753877393651931E-005
                   122 -1.535289369218436E-004
                   123 -2.087854567538592E-005
                   124  1.000168242860074E-004
                   125  1.754905893739589E-004
                   126 -3.802181195581418E-005
                   127  4.191034224677734E-005
                   128 -7.765958516524681E-004
                   129 -2.986863423728899E-007
                   130  2.579547744525062E-005
                   131  2.996473313514569E-004
                   132  1.981776385143409E-005
                   133 -1.086364217234141E-004
                   134  6.680019985506743E-004
                   135 -1.230761596274155E-005
                   136  2.107273309425697E-006
                   137  3.002541896717430E-006
                   138 -1.087254107886484E-007
                   139  1.730065866020454E-006
                   140 -1.703012598342337E-004
                   141 -1.852389815899158E-005
                   142  1.389690266631525E-004
                   143  2.111344002726764E-005
                   144 -9.127138920489786E-006
                   145 -3.408241741168807E-005
                   146  2.013769769613516E-007
                   147 -1.220183165749663E-006
                   148 -8.565278672380809E-006
                   149 -1.589838149763185E-006
                   150 -8.288169855408333E-007
                   151 -2.923085898584095E-006
                   152 -1.540016425225344E-004
                   153 -2.255025499613754E-005
                   154  9.953643614416046E-005
                   155  1.785064381333545E-004
                   156  3.740666095566862E-005
                   157 -4.113117894320884E-005
                   158 -7.766338930699257E-004
                   159  5.667934332621323E-007
                   160 -2.643829999209095E-005
                   161  2.992780991440802E-004
                   162 -1.932869918841034E-005
                   163  1.085549055968686E-004
                   164  6.682912950199464E-004
                   165 -1.225604249149350E-005
                   166 -2.123822784867089E-006
                   167 -2.992234065807874E-006
                   168 -1.650431050179681E-007
                   169  1.723929297022985E-006
                   170 -1.704205059859102E-004
                   171  1.827243660485327E-005
                   172 -1.389655025585028E-004
                   173  2.095070438023144E-005
                   174 -9.253263544732750E-006
                   175 -3.399836395831650E-005
                   176 -1.250914862788481E-007
                   177  1.164271230387665E-006
                   178 -8.611174340220392E-006
                   179 -1.595006356227461E-006
                   180  8.392238663306708E-007
                   181  2.941059037492507E-006
                   182 -1.291349008937708E-004
                   183 -3.479444843622118E-004
                   184  3.002412806955435E-005
                   185  1.903228770149419E-004
                   186 -2.525462316967812E-008
                   187  1.086626750261137E-007
                   188 -4.526179436592596E-005
                   189  3.207557772958072E-008
                   190 -4.477491240980916E-007
                   191  1.617290352976108E-005
                   192  3.423915109008891E-009
                   193 -4.128281824308418E-008
                   194 -2.858995230458238E-006
                   195  1.848546284881159E-005
                   196  8.449746495912374E-009
                   197  5.362534220145291E-009
                   198  7.880946379394567E-006
                   199  9.727623832589573E-007
                   200  5.056761519120479E-005
                   201  7.612757224347888E-009
                   202  1.577310251409597E-007
                   203  3.820613823198020E-005
                   204 -5.440225531384252E-006
                   205 -1.152381106043386E-005
                   206  1.115589589836132E-008
                   207 -2.440709225267799E-008
                   208  3.176173113365114E-006
                   209  2.072752614849322E-006
                   210  1.072758646377349E-009
                   211  2.663270699375556E-008
                   212  4.015138584508728E-003
                   213 -2.388852691397526E-003
                   214  2.910473908398539E-004
                   215  3.825153967136045E-004
                   216  3.673850089384068E-004
                   217  4.015110842199776E-003
                   218 -2.388841595914028E-003
                   219 -2.907591258741255E-004
                   220 -3.828554544158364E-004
                   221  3.672565936851944E-004
                   222 -6.240426844929366E-004
                   223 -2.128309032395728E-004
                   224  2.896256068848108E-006
                   225 -2.474916240018365E-005
                   226 -4.215258094103286E-005
                   227 -6.241104138335382E-004
                   228 -2.124603417682868E-004
                   229 -2.928952740649239E-006
                   230  2.477038723112068E-005
                   231 -4.215359553527501E-005
                   232 -2.324547891306803E-004
                   233 -3.538181310670623E-004
                   234 -2.679203424349983E-006
                   235 -8.322996666322636E-006
                   236  3.192825625025569E-006
                   237 -2.324947399589380E-004
                   238 -3.539762076192677E-004
                   239  2.678454566056733E-006
                   240  8.365801347245483E-006
                   241  3.245964958982531E-006
                   242  7.201709675472821E-005
                   243 -8.664933032800623E-005
                   244  6.187110919573321E-009
                   245 -2.856430656615600E-008
                   246  1.515061096623055E-005
 Sym= __2_A__
 Ene=   2.00000000000000     
 Spin= Alpha
 Occup=    1.00000000000000     
                     1 -3.324601351455744E-005
                     2 -1.605229647741856E-004
                     3  2.134521405672268E-003
                     4  8.127104150295998E-005
                     5  1.244964252094849E-003
                     6  1.030773901543346E-006
                     7 -1.230888405892483E-006
                     8  2.654701557295931E-003
                     9 -2.661158806088543E-008
                    10  3.159018033713377E-008
                    11 -7.366493668697888E-005
                    12 -1.215919215066677E-007
                    13  1.547469574349477E-007
                    14 -3.210325575537203E-004
                    15  4.630859093391837E-005
                    16  1.707835918623108E-009
                    17 -4.400971955896483E-008
                    18  4.004373983906368E-005
                    19 -2.931293747088516E-005
                    20 -2.082004656413410E-004
                    21 -1.109630714580280E-009
                    22  1.926926280430427E-007
                    23 -1.778207734580699E-004
                    24  1.483189511272635E-004
                    25  1.915924020252739E-004
                    26 -1.898647541406811E-007
                    27  2.574424584480705E-007
                    28 -2.652017368227054E-005
                    29 -3.265317811255817E-005
                    30  3.125697211467964E-008
                    31  2.199301480661258E-010
                    32   1.00105733463539     
                    33  9.091913579532297E-003
                    34  2.604004071270726E-003
                    35 -7.792344926095172E-003
                    36 -1.473093841989366E-006
                    37  1.748681151797378E-006
                    38 -3.776095534864340E-003
                    39  4.431082544154697E-007
                    40 -5.255929810127926E-007
                    41  1.137445873231998E-003
                    42  1.626860301288773E-006
                    43 -2.000257779974243E-006
                    44  4.156815414894347E-003
                    45  4.059839052252028E-004
                    46  4.417092537175278E-007
                    47 -1.455365759434005E-007
                    48 -4.095898528496412E-004
                    49  1.627916433345295E-005
                    50  4.487244178283098E-004
                    51 -3.313919299866727E-008
                    52 -7.383487312311228E-007
                    53  8.491143010196656E-004
                    54 -1.305004853206972E-005
                    55  3.509719750341192E-004
                    56 -2.082011175386631E-007
                    57  5.315145182953967E-007
                    58 -1.915217077518430E-004
                    59  1.307423612087186E-005
                    60  8.422540373694399E-008
                    61  1.169566434675794E-007
                    62  8.552224476484398E-003
                    63 -1.957675003127517E-003
                    64 -2.709991668631075E-004
                    65  2.956926302975771E-003
                    66  5.619488847986405E-006
                    67  1.455590329348013E-004
                    68 -5.940442091041347E-005
                    69 -3.958826620238916E-005
                    70  5.541418569641967E-004
                    71  7.799243401277470E-005
                    72  8.347069823584493E-005
                    73 -1.975458756283899E-003
                    74  1.035934061638470E-004
                    75 -1.840810460520752E-005
                    76  1.822880687127599E-006
                    77  1.673032619258392E-005
                    78  2.866047173356502E-005
                    79  2.591056574063922E-006
                    80  7.568799661288600E-004
                    81  3.261304151794870E-005
                    82 -4.179800957397120E-004
                    83 -1.993633435288247E-005
                    84 -1.973232389458632E-005
                    85  6.469228029530609E-005
                    86 -1.097097962595052E-006
                    87  3.735257970055365E-005
                    88 -1.207521945475715E-004
                    89  1.122933139843714E-007
                    90  3.567462786017397E-006
                    91  4.951547599988277E-005
                    92  8.552198297524020E-003
                    93 -1.957757962200001E-003
                    94 -2.710439777658747E-004
                    95  2.957128879462753E-003
                    96 -5.665154782654551E-006
                    97 -1.455049884988063E-004
                    98 -5.956017638390706E-005
                    99  3.964680028885636E-005
                   100 -5.542104203166826E-004
                   101  7.758604974720836E-005
                   102 -8.339756774315140E-005
                   103  1.975496606277387E-003
                   104  1.053369004275387E-004
                   105 -1.841842992015546E-005
                   106 -1.867976254690581E-006
                   107 -1.673556705831233E-005
                   108  2.864196088183336E-005
                   109  2.579822687844145E-006
                   110  7.576650464892415E-004
                   111 -3.159545691201771E-005
                   112  4.168434762487076E-004
                   113 -1.955305407706101E-005
                   114 -1.937583306586272E-005
                   115  6.476448393311943E-005
                   116  1.121951031205754E-006
                   117 -3.702561946284697E-005
                   118 -1.208628081947532E-004
                   119  1.081923962128132E-007
                   120 -3.451798760805472E-006
                   121 -4.937663515373947E-005
                   122 -2.123954626044081E-004
                   123 -7.485537278659623E-004
                   124  2.259576300132021E-004
                   125 -1.402187561391127E-004
                   126 -6.816323451551234E-006
                   127 -2.657204155080973E-005
                   128 -2.302878250177186E-004
                   129  1.494938343488076E-005
                   130  7.247731276575557E-006
                   131  5.490524985734145E-004
                   132 -1.253190330873611E-005
                   133  3.070312470038573E-004
                   134  7.129901215890288E-004
                   135 -1.751563302211476E-005
                   136 -3.338415102845834E-006
                   137  4.996584133460809E-005
                   138  1.459257899891829E-005
                   139  2.648647153318479E-006
                   140 -2.989250083637262E-004
                   141  1.451184670647551E-006
                   142 -2.296466803962821E-004
                   143 -1.945088628470205E-005
                   144 -1.196334954899700E-005
                   145 -2.671105489679190E-006
                   146  4.167245943658150E-006
                   147 -3.476233101141790E-005
                   148 -3.609283694719344E-005
                   149 -3.798160905074691E-006
                   150  8.734730700809531E-007
                   151 -6.552760313988967E-006
                   152 -2.121055220457100E-004
                   153 -7.475909621244127E-004
                   154  2.260303455950001E-004
                   155 -1.412684233330094E-004
                   156  6.637801440856512E-006
                   157  2.677526079734253E-005
                   158 -2.302723106888401E-004
                   159 -1.452612129195080E-005
                   160 -7.704287704198352E-006