[Molden Format]
[Atoms] AU
  N     1    7    -0.0028491700   -0.0007783900   -4.3187346300        
  C     2    6    -0.0018539800   -0.0019634900   -1.7677567300        
  C     3    6     0.0654760000   -2.3356455500   -0.4132344200        
  C     4    6    -0.0681262800    2.3304590300   -0.4110146200        
  C     5    6     0.1057681000   -2.2995661200    2.1683676300        
  C     6    6    -0.1064042200    2.2919809900    2.1705834500        
  C     7    6     0.0001907800   -0.0043985300    3.4738657600        
  H     8    1    -0.9616958900   -1.3601021500   -5.3321461200        
  H     9    1     0.9552070500    1.3594867100   -5.3316305200        
  H    10    1     0.1529208800   -4.0660124100   -1.4516363100        
  H    11    1    -0.1563806600    4.0617899100   -1.4477398100        
  H    12    1     0.2194913000   -4.0379916300    3.2009119500        
  H    13    1    -0.2193211500    4.0294463500    3.2048309300        
  H    14    1     0.0009816700   -0.0053403900    5.5012749400        
[5D]
[7F]
[GTO]
  1  0
   s    12 1.00
  0.114200D+05  0.172695D-04
  0.171200D+04  0.134411D-03
  0.389300D+03  0.694561D-03
  0.110000D+03  0.278531D-02
  0.355700D+02  0.863457D-02
  0.125400D+02  0.199805D-01
  0.464400D+01  0.262908D-01
  0.129300D+01 -0.243845D-01
  0.511800D+00 -0.924934D-01
  0.178700D+00 -0.339683D+00
  0.246240D-01  0.345111D+00
  0.112530D-01  0.752750D+00
   s    10 1.00
  0.114200D+05  0.523000D-03
  0.171200D+04  0.404500D-02
  0.389300D+03  0.207750D-01
  0.110000D+03  0.807269D-01
  0.355700D+02  0.233074D+00
  0.125400D+02  0.433501D+00
  0.464400D+01  0.347472D+00
  0.129300D+01  0.412620D-01
  0.511800D+00 -0.850799D-02
  0.178700D+00  0.238400D-02
   s    10 1.00
  0.114200D+05 -0.115000D-03
  0.171200D+04 -0.895000D-03
  0.389300D+03 -0.462400D-02
  0.110000D+03 -0.185280D-01
  0.355700D+02 -0.573390D-01
  0.125400D+02 -0.132076D+00
  0.464400D+01 -0.172510D+00
  0.129300D+01  0.151814D+00
  0.511800D+00  0.599944D+00
  0.178700D+00  0.387462D+00
   s     1 1.00
  0.129300D+01  0.100000D+01
   s     1 1.00
  0.178700D+00  0.100000D+01
   p     5 1.00
  0.266300D+02  0.146700D-01
  0.594800D+01  0.917640D-01
  0.174200D+01  0.298683D+00
  0.555000D+00  0.498487D+00
  0.172500D+00  0.337023D+00
   p     1 1.00
  0.174200D+01  0.100000D+01
   p     1 1.00
  0.555000D+00  0.100000D+01
   d     1 1.00
  0.165400D+01  0.100000D+01
   d     1 1.00
  0.469000D+00  0.100000D+01
   f     1 1.00
  0.109300D+01  0.100000D+01
  
  2  0
   s    10 1.00
  0.823600D+04  0.531000D-03
  0.123500D+04  0.410800D-02
  0.280800D+03  0.210870D-01
  0.792700D+02  0.818530D-01
  0.255900D+02  0.234817D+00
  0.899700D+01  0.434401D+00
  0.331900D+01  0.346129D+00
  0.905900D+00  0.393780D-01
  0.364300D+00 -0.898300D-02
  0.128500D+00  0.238500D-02
   s    10 1.00
  0.823600D+04 -0.113000D-03
  0.123500D+04 -0.878000D-03
  0.280800D+03 -0.454000D-02
  0.792700D+02 -0.181330D-01
  0.255900D+02 -0.557600D-01
  0.899700D+01 -0.126895D+00
  0.331900D+01 -0.170352D+00
  0.905900D+00  0.140382D+00
  0.364300D+00  0.598684D+00
  0.128500D+00  0.395389D+00
   s     1 1.00
  0.905900D+00  0.100000D+01
   s     1 1.00
  0.364300D+00  0.100000D+01
   p     5 1.00
  0.187100D+02  0.140310D-01
  0.413300D+01  0.868660D-01
  0.120000D+01  0.290216D+00
  0.382700D+00  0.501008D+00
  0.120900D+00  0.343406D+00
   p     1 1.00
  0.382700D+00  0.100000D+01
   p     1 1.00
  0.120900D+00  0.100000D+01
   d     1 1.00
  0.109700D+01  0.100000D+01
   d     1 1.00
  0.318000D+00  0.100000D+01
   f     1 1.00
  0.761000D+00  0.100000D+01
  
  3  0
   s    10 1.00
  0.823600D+04  0.531000D-03
  0.123500D+04  0.410800D-02
  0.280800D+03  0.210870D-01
  0.792700D+02  0.818530D-01
  0.255900D+02  0.234817D+00
  0.899700D+01  0.434401D+00
  0.331900D+01  0.346129D+00
  0.905900D+00  0.393780D-01
  0.364300D+00 -0.898300D-02
  0.128500D+00  0.238500D-02
   s    10 1.00
  0.823600D+04 -0.113000D-03
  0.123500D+04 -0.878000D-03
  0.280800D+03 -0.454000D-02
  0.792700D+02 -0.181330D-01
  0.255900D+02 -0.557600D-01
  0.899700D+01 -0.126895D+00
  0.331900D+01 -0.170352D+00
  0.905900D+00  0.140382D+00
  0.364300D+00  0.598684D+00
  0.128500D+00  0.395389D+00
   s     1 1.00
  0.905900D+00  0.100000D+01
   s     1 1.00
  0.364300D+00  0.100000D+01
   p     5 1.00
  0.187100D+02  0.140310D-01
  0.413300D+01  0.868660D-01
  0.120000D+01  0.290216D+00
  0.382700D+00  0.501008D+00
  0.120900D+00  0.343406D+00
   p     1 1.00
  0.382700D+00  0.100000D+01
   p     1 1.00
  0.120900D+00  0.100000D+01
   d     1 1.00
  0.109700D+01  0.100000D+01
   d     1 1.00
  0.318000D+00  0.100000D+01
   f     1 1.00
  0.761000D+00  0.100000D+01
  
  4  0
   s    10 1.00
  0.823600D+04  0.531000D-03
  0.123500D+04  0.410800D-02
  0.280800D+03  0.210870D-01
  0.792700D+02  0.818530D-01
  0.255900D+02  0.234817D+00
  0.899700D+01  0.434401D+00
  0.331900D+01  0.346129D+00
  0.905900D+00  0.393780D-01
  0.364300D+00 -0.898300D-02
  0.128500D+00  0.238500D-02
   s    10 1.00
  0.823600D+04 -0.113000D-03
  0.123500D+04 -0.878000D-03
  0.280800D+03 -0.454000D-02
  0.792700D+02 -0.181330D-01
  0.255900D+02 -0.557600D-01
  0.899700D+01 -0.126895D+00
  0.331900D+01 -0.170352D+00
  0.905900D+00  0.140382D+00
  0.364300D+00  0.598684D+00
  0.128500D+00  0.395389D+00
   s     1 1.00
  0.905900D+00  0.100000D+01
   s     1 1.00
  0.364300D+00  0.100000D+01
   p     5 1.00
  0.187100D+02  0.140310D-01
  0.413300D+01  0.868660D-01
  0.120000D+01  0.290216D+00
  0.382700D+00  0.501008D+00
  0.120900D+00  0.343406D+00
   p     1 1.00
  0.382700D+00  0.100000D+01
   p     1 1.00
  0.120900D+00  0.100000D+01
   d     1 1.00
  0.109700D+01  0.100000D+01
   d     1 1.00
  0.318000D+00  0.100000D+01
   f     1 1.00
  0.761000D+00  0.100000D+01
  
  5  0
   s    10 1.00
  0.823600D+04  0.531000D-03
  0.123500D+04  0.410800D-02
  0.280800D+03  0.210870D-01
  0.792700D+02  0.818530D-01
  0.255900D+02  0.234817D+00
  0.899700D+01  0.434401D+00
  0.331900D+01  0.346129D+00
  0.905900D+00  0.393780D-01
  0.364300D+00 -0.898300D-02
  0.128500D+00  0.238500D-02
   s    10 1.00
  0.823600D+04 -0.113000D-03
  0.123500D+04 -0.878000D-03
  0.280800D+03 -0.454000D-02
  0.792700D+02 -0.181330D-01
  0.255900D+02 -0.557600D-01
  0.899700D+01 -0.126895D+00
  0.331900D+01 -0.170352D+00
  0.905900D+00  0.140382D+00
  0.364300D+00  0.598684D+00
  0.128500D+00  0.395389D+00
   s     1 1.00
  0.905900D+00  0.100000D+01
   s     1 1.00
  0.364300D+00  0.100000D+01
   p     5 1.00
  0.187100D+02  0.140310D-01
  0.413300D+01  0.868660D-01
  0.120000D+01  0.290216D+00
  0.382700D+00  0.501008D+00
  0.120900D+00  0.343406D+00
   p     1 1.00
  0.382700D+00  0.100000D+01
   p     1 1.00
  0.120900D+00  0.100000D+01
   d     1 1.00
  0.109700D+01  0.100000D+01
   d     1 1.00
  0.318000D+00  0.100000D+01
   f     1 1.00
  0.761000D+00  0.100000D+01
  
  6  0
   s    10 1.00
  0.823600D+04  0.531000D-03
  0.123500D+04  0.410800D-02
  0.280800D+03  0.210870D-01
  0.792700D+02  0.818530D-01
  0.255900D+02  0.234817D+00
  0.899700D+01  0.434401D+00
  0.331900D+01  0.346129D+00
  0.905900D+00  0.393780D-01
  0.364300D+00 -0.898300D-02
  0.128500D+00  0.238500D-02
   s    10 1.00
  0.823600D+04 -0.113000D-03
  0.123500D+04 -0.878000D-03
  0.280800D+03 -0.454000D-02
  0.792700D+02 -0.181330D-01
  0.255900D+02 -0.557600D-01
  0.899700D+01 -0.126895D+00
  0.331900D+01 -0.170352D+00
  0.905900D+00  0.140382D+00
  0.364300D+00  0.598684D+00
  0.128500D+00  0.395389D+00
   s     1 1.00
  0.905900D+00  0.100000D+01
   s     1 1.00
  0.364300D+00  0.100000D+01
   p     5 1.00
  0.187100D+02  0.140310D-01
  0.413300D+01  0.868660D-01
  0.120000D+01  0.290216D+00
  0.382700D+00  0.501008D+00
  0.120900D+00  0.343406D+00
   p     1 1.00
  0.382700D+00  0.100000D+01
   p     1 1.00
  0.120900D+00  0.100000D+01
   d     1 1.00
  0.109700D+01  0.100000D+01
   d     1 1.00
  0.318000D+00  0.100000D+01
   f     1 1.00
  0.761000D+00  0.100000D+01
  
  7  0
   s    10 1.00
  0.823600D+04  0.531000D-03
  0.123500D+04  0.410800D-02
  0.280800D+03  0.210870D-01
  0.792700D+02  0.818530D-01
  0.255900D+02  0.234817D+00
  0.899700D+01  0.434401D+00
  0.331900D+01  0.346129D+00
  0.905900D+00  0.393780D-01
  0.364300D+00 -0.898300D-02
  0.128500D+00  0.238500D-02
   s    10 1.00
  0.823600D+04 -0.113000D-03
  0.123500D+04 -0.878000D-03
  0.280800D+03 -0.454000D-02
  0.792700D+02 -0.181330D-01
  0.255900D+02 -0.557600D-01
  0.899700D+01 -0.126895D+00
  0.331900D+01 -0.170352D+00
  0.905900D+00  0.140382D+00
  0.364300D+00  0.598684D+00
  0.128500D+00  0.395389D+00
   s     1 1.00
  0.905900D+00  0.100000D+01
   s     1 1.00
  0.364300D+00  0.100000D+01
   p     5 1.00
  0.187100D+02  0.140310D-01
  0.413300D+01  0.868660D-01
  0.120000D+01  0.290216D+00
  0.382700D+00  0.501008D+00
  0.120900D+00  0.343406D+00
   p     1 1.00
  0.382700D+00  0.100000D+01
   p     1 1.00
  0.120900D+00  0.100000D+01
   d     1 1.00
  0.109700D+01  0.100000D+01
   d     1 1.00
  0.318000D+00  0.100000D+01
   f     1 1.00
  0.761000D+00  0.100000D+01
  
  8  0
   s     4 1.00
  0.130100D+02  0.196850D-01
  0.196200D+01  0.137977D+00
  0.444600D+00  0.478148D+00
  0.122000D+00  0.501240D+00
   s     1 1.00
  0.122000D+00  0.100000D+01
   p     1 1.00
  0.727000D+00  0.100000D+01
  
  9  0
   s     4 1.00
  0.130100D+02  0.196850D-01
  0.196200D+01  0.137977D+00
  0.444600D+00  0.478148D+00
  0.122000D+00  0.501240D+00
   s     1 1.00
  0.122000D+00  0.100000D+01
   p     1 1.00
  0.727000D+00  0.100000D+01
  
 10  0
   s     4 1.00
  0.130100D+02  0.196850D-01
  0.196200D+01  0.137977D+00
  0.444600D+00  0.478148D+00
  0.122000D+00  0.501240D+00
   s     1 1.00
  0.122000D+00  0.100000D+01
   p     1 1.00
  0.727000D+00  0.100000D+01
  
 11  0
   s     4 1.00
  0.130100D+02  0.196850D-01
  0.196200D+01  0.137977D+00
  0.444600D+00  0.478148D+00
  0.122000D+00  0.501240D+00
   s     1 1.00
  0.122000D+00  0.100000D+01
   p     1 1.00
  0.727000D+00  0.100000D+01
  
 12  0
   s     4 1.00
  0.130100D+02  0.196850D-01
  0.196200D+01  0.137977D+00
  0.444600D+00  0.478148D+00
  0.122000D+00  0.501240D+00
   s     1 1.00
  0.122000D+00  0.100000D+01
   p     1 1.00
  0.727000D+00  0.100000D+01
  
 13  0
   s     4 1.00
  0.130100D+02  0.196850D-01
  0.196200D+01  0.137977D+00
  0.444600D+00  0.478148D+00
  0.122000D+00  0.501240D+00
   s     1 1.00
  0.122000D+00  0.100000D+01
   p     1 1.00
  0.727000D+00  0.100000D+01
  
 14  0
   s     4 1.00
  0.130100D+02  0.196850D-01
  0.196200D+01  0.137977D+00
  0.444600D+00  0.478148D+00
  0.122000D+00  0.501240D+00
   s     1 1.00
  0.122000D+00  0.100000D+01
   p     1 1.00
  0.727000D+00  0.100000D+01
  
[MO]
 Sym= __1_A__
 Ene=  0.000000000000000E+000
 Spin= Alpha
 Occup=    2.00000000000000     
                     1  4.603850183959622E-005
                     2  0.997996731094117     
                     3  9.246882433216931E-003
                     4  2.091836499939125E-003
                     5  1.622218021135346E-003
                     6  1.699578296389668E-006
                     7 -2.024479392699459E-006
                     8  4.337218074769221E-003
                     9 -7.265165050359316E-008
                    10  9.187097156365869E-008
                    11 -1.767807944660378E-004
                    12 -1.278971170878036E-007
                    13  1.193074369688258E-007
                    14 -3.210364139598951E-004
                    15  2.266718123691922E-004
                    16  2.112405123241165E-007
                    17 -1.896727683403525E-007
                    18 -5.115664559761548E-005
                    19  8.056955035457637E-005
                    20  1.193645220215321E-004
                    21 -2.249697821699342E-007
                    22 -4.006218760869268E-008
                    23  2.174562091108402E-004
                    24 -4.652924808478657E-004
                    25 -1.824135798928174E-004
                    26  1.024962766402491E-007
                    27 -2.128541211814235E-007
                    28  5.223223055575478E-005
                    29 -5.361586692989901E-005
                    30  6.213724166454834E-009
                    31 -5.630441073558398E-008
                    32 -2.818669245536731E-004
                    33  2.766306347953539E-003
                    34  1.408723228907377E-004
                    35 -3.987459872924162E-004
                    36 -2.655140325590469E-006
                    37  3.174248260239728E-006
                    38 -6.793859492280049E-003
                    39  6.779528030404219E-008
                    40 -1.232160134487020E-007
                    41  1.564581798874449E-004
                    42  1.657934248681151E-006
                    43 -1.939082911337799E-006
                    44  4.268230755304977E-003
                    45  3.487252071565722E-004
                    46  1.835650989396459E-007
                    47 -3.206445594659977E-007
                    48  1.179885013801253E-004
                    49 -1.337120353535781E-005
                    50  3.042414418972270E-004
                    51  3.430225897710962E-007
                    52 -3.259914019673660E-007
                    53 -2.197153930474354E-004
                    54  1.119775955760970E-004
                    55 -9.410283497623193E-005
                    56  3.677789234621607E-008
                    57 -1.419499468362823E-007
                    58  6.184861430140116E-005
                    59 -2.143797001888886E-005
                    60 -1.753154870436721E-008
                    61 -4.918363680382320E-008
                    62 -2.055504551477160E-004
                    63 -1.654326302364769E-003
                    64  2.864757033816773E-005
                    65  6.859956822538447E-004
                    66 -1.983414681773423E-005
                    67 -8.427741176389068E-004
                    68  1.026022065113761E-003
                    69  5.589175071058041E-005
                    70  2.789656512057828E-005
                    71  4.307384274450527E-004
                    72  3.856140630866441E-005
                    73 -6.602319421807066E-004
                    74 -2.052862079045223E-004
                    75  8.874411222715342E-005
                    76  2.804134007717311E-006
                    77 -1.127384073552915E-005
                    78  3.487794213877742E-005
                    79 -1.727848891924690E-007
                    80  2.452154617415106E-005
                    81 -3.317555408199819E-005
                    82  1.124903397887291E-004
                    83 -5.113794773770914E-006
                    84  3.324292873604965E-005
                    85 -8.642441861914866E-005
                    86  5.021313472849994E-006
                    87 -1.785589235284913E-005
                    88  2.170801070085718E-005
                    89 -7.258382665238651E-006
                    90  2.166759571964992E-006
                    91  1.750804892034829E-005
                    92 -2.055143815653772E-004
                    93 -1.654181576621517E-003
                    94  2.881132202631369E-005
                    95  6.854612672738719E-004
                    96  2.063261440804785E-005
                    97  8.418394806998910E-004
                    98  1.026896908834263E-003
                    99 -5.554463933969106E-005
                   100 -2.843492729587254E-005
                   101  4.301362319246999E-004
                   102 -3.869174956179820E-005
                   103  6.598537958401106E-004
                   104 -2.044798282228976E-004
                   105  8.873369299627848E-005
                   106 -2.711127512472765E-006
                   107  1.111559310111263E-005
                   108  3.488811652954090E-005
                   109 -1.616782510723163E-007
                   110  2.385896448432051E-005
                   111  3.325330687403363E-005
                   112 -1.126574913826956E-004
                   113 -5.280359068185128E-006
                   114  3.312053974817379E-005
                   115 -8.640711857296309E-005
                   116 -4.892140255986566E-006
                   117  1.763850844872794E-005
                   118  2.170159070797170E-005
                   119 -7.215587449822534E-006
                   120 -2.179612211652015E-006
                   121 -1.753877383917152E-005
                   122 -1.535289381995962E-004
                   123 -2.087854511465833E-005
                   124  1.000168244163479E-004
                   125  1.754905898504786E-004
                   126 -3.802181237185264E-005
                   127  4.191034456098944E-005
                   128 -7.765958661451617E-004
                   129 -2.986862833266059E-007
                   130  2.579547718900619E-005
                   131  2.996473327729662E-004
                   132  1.981776394566864E-005
                   133 -1.086364224865716E-004
                   134  6.680020023655584E-004
                   135 -1.230761553242393E-005
                   136  2.107273324028838E-006
                   137  3.002541794708561E-006
                   138 -1.087252514479760E-007
                   139  1.730065885410885E-006
                   140 -1.703012596727959E-004
                   141 -1.852389812447919E-005
                   142  1.389690260292677E-004
                   143  2.111343997697098E-005
                   144 -9.127138929836154E-006
                   145 -3.408241730033812E-005
                   146  2.013769709302266E-007
                   147 -1.220183098934500E-006
                   148 -8.565278653606530E-006
                   149 -1.589838147183501E-006
                   150 -8.288169844471995E-007
                   151 -2.923085901690483E-006
                   152 -1.540016439384919E-004
                   153 -2.255024735783901E-005
                   154  9.953643614521890E-005
                   155  1.785064383104323E-004
                   156  3.740666172791597E-005
                   157 -4.113118262838452E-005
                   158 -7.766339166674391E-004
                   159  5.667933540207862E-007
                   160 -2.643829969595802E-005
                   161  2.992781012245469E-004
                   162 -1.932869930390714E-005
                   163  1.085549064021994E-004
                   164  6.682913009787497E-004
                   165 -1.225604174315582E-005
                   166 -2.123822804535187E-006
                   167 -2.992233963290341E-006
                   168 -1.650429075779332E-007
                   169  1.723929316553338E-006
                   170 -1.704205054511498E-004
                   171  1.827243658033015E-005
                   172 -1.389655020738502E-004
                   173  2.095070430313888E-005
                   174 -9.253263561649101E-006
                   175 -3.399836369035731E-005
                   176 -1.250914757700048E-007
                   177  1.164271144527302E-006
                   178 -8.611174359243629E-006
                   179 -1.595006359004205E-006
                   180  8.392238686575822E-007
                   181  2.941059048744668E-006
                   182 -1.291349014363562E-004
                   183 -3.479444905688593E-004
                   184  3.002412824506402E-005
                   185  1.903228784784857E-004
                   186 -2.525446874585161E-008
                   187  1.086621768282943E-007
                   188 -4.526179076965466E-005
                   189  3.207558646686155E-008
                   190 -4.477493017599968E-007
                   191  1.617290300371406E-005
                   192  3.423929248272119E-009
                   193 -4.128331010797515E-008
                   194 -2.858992493849551E-006
                   195  1.848546332404352E-005
                   196  8.449746387969563E-009
                   197  5.362482055506920E-009
                   198  7.880946671826535E-006
                   199  9.727624205150507E-007
                   200  5.056761552546403E-005
                   201  7.612756798917277E-009
                   202  1.577309682993868E-007
                   203  3.820613861985170E-005
                   204 -5.440225483393690E-006
                   205 -1.152381100762498E-005
                   206  1.115589432911941E-008
                   207 -2.440704153400386E-008
                   208  3.176173070433774E-006
                   209  2.072752606388967E-006
                   210  1.072764611685567E-009
                   211  2.663273646241309E-008
                   212  4.015138584328153E-003
                   213 -2.388852691393004E-003
                   214  2.910473908770298E-004
                   215  3.825153967410389E-004
                   216  3.673850089689859E-004
                   217  4.015110842126112E-003
                   218 -2.388841595703582E-003
                   219 -2.907591258901624E-004
                   220 -3.828554544191247E-004
                   221  3.672565937157311E-004
                   222 -6.240426964830965E-004
                   223 -2.128309013760997E-004
                   224  2.896256104342442E-006
                   225 -2.474916303693697E-005
                   226 -4.215258120903214E-005
                   227 -6.241104319660122E-004
                   228 -2.124603379096867E-004
                   229 -2.928952798511852E-006
                   230  2.477038819690619E-005
                   231 -4.215359588777714E-005
                   232 -2.324547967535448E-004
                   233 -3.538181298844062E-004
                   234 -2.679203397024393E-006
                   235 -8.322997140012176E-006
                   236  3.192825753314153E-006
                   237 -2.324947499562634E-004
                   238 -3.539762060406415E-004
                   239  2.678454534466773E-006
                   240  8.365801947583278E-006
                   241  3.245965055299636E-006
                   242  7.201710152966690E-005
                   243 -8.664933256572827E-005
                   244  6.187114358914564E-009
                   245 -2.856432603641510E-008
                   246  1.515061086568518E-005
 Sym= __2_A__
 Ene=  0.000000000000000E+000
 Spin= Alpha
 Occup=    2.00000000000000     
                     1 -3.324601357328951E-005
                     2 -1.605229601355834E-004
                     3  2.134521405656504E-003
                     4  8.127104153046979E-005
                     5  1.244964251984003E-003
                     6  1.030773879613459E-006
                     7 -1.230888431429442E-006
                     8  2.654701557302126E-003
                     9 -2.661157928961903E-008
                    10  3.159018203110524E-008
                    11 -7.366493665014772E-005
                    12 -1.215919034170679E-007
                    13  1.547469158124275E-007
                    14 -3.210325575178934E-004
                    15  4.630859092420583E-005
                    16  1.707834125747993E-009
                    17 -4.400972921057131E-008
                    18  4.004373983983962E-005
                    19 -2.931293747186173E-005
                    20 -2.082004657016543E-004
                    21 -1.109640916772981E-009
                    22  1.926925332977249E-007
                    23 -1.778207733912521E-004
                    24  1.483189511213831E-004
                    25  1.915924020350757E-004
                    26 -1.898647530937050E-007
                    27  2.574424407685347E-007
                    28 -2.652017366528074E-005
                    29 -3.265317810763080E-005
                    30  3.125697282666696E-008
                    31  2.199289787740730E-010
                    32   1.00105733463236     
                    33  9.091913575665198E-003
                    34  2.604004071155695E-003
                    35 -7.792344924695572E-003
                    36 -1.473093957513752E-006
                    37  1.748679863685992E-006
                    38 -3.776095535161794E-003
                    39  4.431082587055098E-007
                    40 -5.255928000285956E-007
                    41  1.137445873305734E-003
                    42  1.626860273415435E-006
                    43 -2.000257676340634E-006
                    44  4.156815413968879E-003
                    45  4.059839053634942E-004
                    46  4.417092524871471E-007
                    47 -1.455365843007613E-007
                    48 -4.095898527180784E-004
                    49  1.627916433860661E-005
                    50  4.487244178114968E-004
                    51 -3.313919025005433E-008
                    52 -7.383488674393942E-007
                    53  8.491143009466546E-004
                    54 -1.305004853073602E-005
                    55  3.509719749724461E-004
                    56 -2.082011181664659E-007
                    57  5.315145344384463E-007
                    58 -1.915217076886097E-004
                    59  1.307423612755619E-005
                    60  8.422540441137857E-008
                    61  1.169566720464317E-007
                    62  8.552224555416309E-003
                    63 -1.957675001779137E-003
                    64 -2.709991665916238E-004
                    65  2.956926302256567E-003
                    66  5.619488700146202E-006
                    67  1.455590345442582E-004
                    68 -5.940441549195686E-005
                    69 -3.958826617023914E-005
                    70  5.541418565612124E-004
                    71  7.799243358953642E-005
                    72  8.347069826035095E-005
                    73 -1.975458756356844E-003
                    74  1.035934051670771E-004
                    75 -1.840810442445665E-005
                    76  1.822880691803265E-006
                    77  1.673032616897841E-005
                    78  2.866047177422824E-005
                    79  2.591056577061945E-006
                    80  7.568799661433104E-004
                    81  3.261304149617691E-005
                    82 -4.179800954459494E-004
                    83 -1.993633437023317E-005
                    84 -1.973232389408792E-005
                    85  6.469228021260355E-005
                    86 -1.097097960558348E-006
                    87  3.735257969483171E-005
                    88 -1.207521945377481E-004
                    89  1.122933159317177E-007
                    90  3.567462787307076E-006
                    91  4.951547600499534E-005
                    92  8.552198526399648E-003
                    93 -1.957757959658713E-003
                    94 -2.710439770554653E-004
                    95  2.957128877531840E-003
                    96 -5.665154723643837E-006
                    97 -1.455049898494640E-004
                    98 -5.956016766122263E-005
                    99  3.964680022365820E-005
                   100 -5.542104198604405E-004
                   101  7.758604896733249E-005
                   102 -8.339756775126943E-005
                   103  1.975496606049769E-003
                   104  1.053368986610853E-004
                   105 -1.841842961223972E-005
                   106 -1.867976256433729E-006
                   107 -1.673556705610108E-005
                   108  2.864196091765968E-005
                   109  2.579822697150101E-006
                   110  7.576650464127184E-004
                   111 -3.159545686906208E-005
                   112  4.168434757383624E-004
                   113 -1.955305409048453E-005
                   114 -1.937583305584143E-005
                   115  6.476448380390607E-005
                   116  1.121951027107746E-006
                   117 -3.702561944836491E-005
                   118 -1.208628081752252E-004
                   119  1.081923984470159E-007
                   120 -3.451798767972049E-006
                   121 -4.937663517992710E-005
                   122 -2.123954731889025E-004
                   123 -7.485537267915490E-004
                   124  2.259576299214476E-004
                   125 -1.402187555930329E-004
                   126 -6.816323621279431E-006
                   127 -2.657204069688926E-005
                   128 -2.302878301554718E-004
                   129  1.494938345100828E-005
                   130  7.247731165018465E-006
                   131  5.490524988890586E-004
                   132 -1.253190326708449E-005
                   133  3.070312466342154E-004
                   134  7.129901224530346E-004
                   135 -1.751563287524836E-005
                   136 -3.338415097523982E-006
                   137  4.996584133840537E-005
                   138  1.459257904664722E-005
                   139  2.648647159291137E-006
                   140 -2.989250081814525E-004
                   141  1.451184685601144E-006
                   142 -2.296466804389678E-004
                   143 -1.945088632057534E-005
                   144 -1.196334954735427E-005
                   145 -2.671105443497984E-006
                   146  4.167245940592277E-006
                   147 -3.476233100579914E-005
                   148 -3.609283694545034E-005
                   149 -3.798160903955072E-006
                   150  8.734730697542996E-007
                   151 -6.552760320650153E-006
                   152 -2.121055280349950E-004
                   153 -7.475909593031395E-004
                   154  2.260303454273250E-004
                   155 -1.412684225293536E-004
                   156  6.637801715051594E-006
                   157  2.677525963554585E-005
                   158 -2.302723182549807E-004
                   159 -1.452612130578668E-005
                   160 -7.704287606990076E-006