[Molden Format]
[Atoms] AU
  N     1    7    -4.4709670500    0.1740057500   -0.2131602700        
  C     2    6    -1.7562967500    0.0227015500   -0.0957533100        
  C     3    6    -0.3790004300    0.1937371100   -2.3350754200        
  C     4    6    -0.4553802600   -0.1349453900    2.1857187400        
  C     5    6     2.2323244700    0.1551207200   -2.2836761500        
  C     6    6     2.1647214300   -0.1218109900    2.2227029900        
  C     7    6     3.5180948700    0.0103943400   -0.0064625900        
  H     8    1    -5.1789588400   -1.5147701800   -0.8680971900        
  H     9    1    -5.1325198500    0.3231272300    1.6062358300        
  H    10    1    -1.3669515400    0.3706953400   -4.0954936200        
  H    11    1    -1.4871105500   -0.2815346400    3.9261288400        
  H    12    1     3.2693836400    0.2741127700   -4.0235512200        
  H    13    1     3.1397805100   -0.2359178800    3.9986639000        
  H    14    1     5.5462786400    0.0054192200    0.0243932100        
[5D]
[7F]
[GTO]
  1  0
   s    12 1.00
  0.114200D+05  0.172695D-04
  0.171200D+04  0.134411D-03
  0.389300D+03  0.694561D-03
  0.110000D+03  0.278531D-02
  0.355700D+02  0.863457D-02
  0.125400D+02  0.199805D-01
  0.464400D+01  0.262908D-01
  0.129300D+01 -0.243845D-01
  0.511800D+00 -0.924934D-01
  0.178700D+00 -0.339683D+00
  0.246240D-01  0.345111D+00
  0.112530D-01  0.752750D+00
   s    10 1.00
  0.114200D+05  0.523000D-03
  0.171200D+04  0.404500D-02
  0.389300D+03  0.207750D-01
  0.110000D+03  0.807269D-01
  0.355700D+02  0.233074D+00
  0.125400D+02  0.433501D+00
  0.464400D+01  0.347472D+00
  0.129300D+01  0.412620D-01
  0.511800D+00 -0.850799D-02
  0.178700D+00  0.238400D-02
   s    10 1.00
  0.114200D+05 -0.115000D-03
  0.171200D+04 -0.895000D-03
  0.389300D+03 -0.462400D-02
  0.110000D+03 -0.185280D-01
  0.355700D+02 -0.573390D-01
  0.125400D+02 -0.132076D+00
  0.464400D+01 -0.172510D+00
  0.129300D+01  0.151814D+00
  0.511800D+00  0.599944D+00
  0.178700D+00  0.387462D+00
   s     1 1.00
  0.129300D+01  0.100000D+01
   s     1 1.00
  0.178700D+00  0.100000D+01
   p     5 1.00
  0.266300D+02  0.146700D-01
  0.594800D+01  0.917640D-01
  0.174200D+01  0.298683D+00
  0.555000D+00  0.498487D+00
  0.172500D+00  0.337023D+00
   p     1 1.00
  0.174200D+01  0.100000D+01
   p     1 1.00
  0.555000D+00  0.100000D+01
   d     1 1.00
  0.165400D+01  0.100000D+01
   d     1 1.00
  0.469000D+00  0.100000D+01
   f     1 1.00
  0.109300D+01  0.100000D+01
  
  2  0
   s    10 1.00
  0.823600D+04  0.531000D-03
  0.123500D+04  0.410800D-02
  0.280800D+03  0.210870D-01
  0.792700D+02  0.818530D-01
  0.255900D+02  0.234817D+00
  0.899700D+01  0.434401D+00
  0.331900D+01  0.346129D+00
  0.905900D+00  0.393780D-01
  0.364300D+00 -0.898300D-02
  0.128500D+00  0.238500D-02
   s    10 1.00
  0.823600D+04 -0.113000D-03
  0.123500D+04 -0.878000D-03
  0.280800D+03 -0.454000D-02
  0.792700D+02 -0.181330D-01
  0.255900D+02 -0.557600D-01
  0.899700D+01 -0.126895D+00
  0.331900D+01 -0.170352D+00
  0.905900D+00  0.140382D+00
  0.364300D+00  0.598684D+00
  0.128500D+00  0.395389D+00
   s     1 1.00
  0.905900D+00  0.100000D+01
   s     1 1.00
  0.364300D+00  0.100000D+01
   p     5 1.00
  0.187100D+02  0.140310D-01
  0.413300D+01  0.868660D-01
  0.120000D+01  0.290216D+00
  0.382700D+00  0.501008D+00
  0.120900D+00  0.343406D+00
   p     1 1.00
  0.382700D+00  0.100000D+01
   p     1 1.00
  0.120900D+00  0.100000D+01
   d     1 1.00
  0.109700D+01  0.100000D+01
   d     1 1.00
  0.318000D+00  0.100000D+01
   f     1 1.00
  0.761000D+00  0.100000D+01
  
  3  0
   s    10 1.00
  0.823600D+04  0.531000D-03
  0.123500D+04  0.410800D-02
  0.280800D+03  0.210870D-01
  0.792700D+02  0.818530D-01
  0.255900D+02  0.234817D+00
  0.899700D+01  0.434401D+00
  0.331900D+01  0.346129D+00
  0.905900D+00  0.393780D-01
  0.364300D+00 -0.898300D-02
  0.128500D+00  0.238500D-02
   s    10 1.00
  0.823600D+04 -0.113000D-03
  0.123500D+04 -0.878000D-03
  0.280800D+03 -0.454000D-02
  0.792700D+02 -0.181330D-01
  0.255900D+02 -0.557600D-01
  0.899700D+01 -0.126895D+00
  0.331900D+01 -0.170352D+00
  0.905900D+00  0.140382D+00
  0.364300D+00  0.598684D+00
  0.128500D+00  0.395389D+00
   s     1 1.00
  0.905900D+00  0.100000D+01
   s     1 1.00
  0.364300D+00  0.100000D+01
   p     5 1.00
  0.187100D+02  0.140310D-01
  0.413300D+01  0.868660D-01
  0.120000D+01  0.290216D+00
  0.382700D+00  0.501008D+00
  0.120900D+00  0.343406D+00
   p     1 1.00
  0.382700D+00  0.100000D+01
   p     1 1.00
  0.120900D+00  0.100000D+01
   d     1 1.00
  0.109700D+01  0.100000D+01
   d     1 1.00
  0.318000D+00  0.100000D+01
   f     1 1.00
  0.761000D+00  0.100000D+01
  
  4  0
   s    10 1.00
  0.823600D+04  0.531000D-03
  0.123500D+04  0.410800D-02
  0.280800D+03  0.210870D-01
  0.792700D+02  0.818530D-01
  0.255900D+02  0.234817D+00
  0.899700D+01  0.434401D+00
  0.331900D+01  0.346129D+00
  0.905900D+00  0.393780D-01
  0.364300D+00 -0.898300D-02
  0.128500D+00  0.238500D-02
   s    10 1.00
  0.823600D+04 -0.113000D-03
  0.123500D+04 -0.878000D-03
  0.280800D+03 -0.454000D-02
  0.792700D+02 -0.181330D-01
  0.255900D+02 -0.557600D-01
  0.899700D+01 -0.126895D+00
  0.331900D+01 -0.170352D+00
  0.905900D+00  0.140382D+00
  0.364300D+00  0.598684D+00
  0.128500D+00  0.395389D+00
   s     1 1.00
  0.905900D+00  0.100000D+01
   s     1 1.00
  0.364300D+00  0.100000D+01
   p     5 1.00
  0.187100D+02  0.140310D-01
  0.413300D+01  0.868660D-01
  0.120000D+01  0.290216D+00
  0.382700D+00  0.501008D+00
  0.120900D+00  0.343406D+00
   p     1 1.00
  0.382700D+00  0.100000D+01
   p     1 1.00
  0.120900D+00  0.100000D+01
   d     1 1.00
  0.109700D+01  0.100000D+01
   d     1 1.00
  0.318000D+00  0.100000D+01
   f     1 1.00
  0.761000D+00  0.100000D+01
  
  5  0
   s    10 1.00
  0.823600D+04  0.531000D-03
  0.123500D+04  0.410800D-02
  0.280800D+03  0.210870D-01
  0.792700D+02  0.818530D-01
  0.255900D+02  0.234817D+00
  0.899700D+01  0.434401D+00
  0.331900D+01  0.346129D+00
  0.905900D+00  0.393780D-01
  0.364300D+00 -0.898300D-02
  0.128500D+00  0.238500D-02
   s    10 1.00
  0.823600D+04 -0.113000D-03
  0.123500D+04 -0.878000D-03
  0.280800D+03 -0.454000D-02
  0.792700D+02 -0.181330D-01
  0.255900D+02 -0.557600D-01
  0.899700D+01 -0.126895D+00
  0.331900D+01 -0.170352D+00
  0.905900D+00  0.140382D+00
  0.364300D+00  0.598684D+00
  0.128500D+00  0.395389D+00
   s     1 1.00
  0.905900D+00  0.100000D+01
   s     1 1.00
  0.364300D+00  0.100000D+01
   p     5 1.00
  0.187100D+02  0.140310D-01
  0.413300D+01  0.868660D-01
  0.120000D+01  0.290216D+00
  0.382700D+00  0.501008D+00
  0.120900D+00  0.343406D+00
   p     1 1.00
  0.382700D+00  0.100000D+01
   p     1 1.00
  0.120900D+00  0.100000D+01
   d     1 1.00
  0.109700D+01  0.100000D+01
   d     1 1.00
  0.318000D+00  0.100000D+01
   f     1 1.00
  0.761000D+00  0.100000D+01
  
  6  0
   s    10 1.00
  0.823600D+04  0.531000D-03
  0.123500D+04  0.410800D-02
  0.280800D+03  0.210870D-01
  0.792700D+02  0.818530D-01
  0.255900D+02  0.234817D+00
  0.899700D+01  0.434401D+00
  0.331900D+01  0.346129D+00
  0.905900D+00  0.393780D-01
  0.364300D+00 -0.898300D-02
  0.128500D+00  0.238500D-02
   s    10 1.00
  0.823600D+04 -0.113000D-03
  0.123500D+04 -0.878000D-03
  0.280800D+03 -0.454000D-02
  0.792700D+02 -0.181330D-01
  0.255900D+02 -0.557600D-01
  0.899700D+01 -0.126895D+00
  0.331900D+01 -0.170352D+00
  0.905900D+00  0.140382D+00
  0.364300D+00  0.598684D+00
  0.128500D+00  0.395389D+00
   s     1 1.00
  0.905900D+00  0.100000D+01
   s     1 1.00
  0.364300D+00  0.100000D+01
   p     5 1.00
  0.187100D+02  0.140310D-01
  0.413300D+01  0.868660D-01
  0.120000D+01  0.290216D+00
  0.382700D+00  0.501008D+00
  0.120900D+00  0.343406D+00
   p     1 1.00
  0.382700D+00  0.100000D+01
   p     1 1.00
  0.120900D+00  0.100000D+01
   d     1 1.00
  0.109700D+01  0.100000D+01
   d     1 1.00
  0.318000D+00  0.100000D+01
   f     1 1.00
  0.761000D+00  0.100000D+01
  
  7  0
   s    10 1.00
  0.823600D+04  0.531000D-03
  0.123500D+04  0.410800D-02
  0.280800D+03  0.210870D-01
  0.792700D+02  0.818530D-01
  0.255900D+02  0.234817D+00
  0.899700D+01  0.434401D+00
  0.331900D+01  0.346129D+00
  0.905900D+00  0.393780D-01
  0.364300D+00 -0.898300D-02
  0.128500D+00  0.238500D-02
   s    10 1.00
  0.823600D+04 -0.113000D-03
  0.123500D+04 -0.878000D-03
  0.280800D+03 -0.454000D-02
  0.792700D+02 -0.181330D-01
  0.255900D+02 -0.557600D-01
  0.899700D+01 -0.126895D+00
  0.331900D+01 -0.170352D+00
  0.905900D+00  0.140382D+00
  0.364300D+00  0.598684D+00
  0.128500D+00  0.395389D+00
   s     1 1.00
  0.905900D+00  0.100000D+01
   s     1 1.00
  0.364300D+00  0.100000D+01
   p     5 1.00
  0.187100D+02  0.140310D-01
  0.413300D+01  0.868660D-01
  0.120000D+01  0.290216D+00
  0.382700D+00  0.501008D+00
  0.120900D+00  0.343406D+00
   p     1 1.00
  0.382700D+00  0.100000D+01
   p     1 1.00
  0.120900D+00  0.100000D+01
   d     1 1.00
  0.109700D+01  0.100000D+01
   d     1 1.00
  0.318000D+00  0.100000D+01
   f     1 1.00
  0.761000D+00  0.100000D+01
  
  8  0
   s     4 1.00
  0.130100D+02  0.196850D-01
  0.196200D+01  0.137977D+00
  0.444600D+00  0.478148D+00
  0.122000D+00  0.501240D+00
   s     1 1.00
  0.122000D+00  0.100000D+01
   p     1 1.00
  0.727000D+00  0.100000D+01
  
  9  0
   s     4 1.00
  0.130100D+02  0.196850D-01
  0.196200D+01  0.137977D+00
  0.444600D+00  0.478148D+00
  0.122000D+00  0.501240D+00
   s     1 1.00
  0.122000D+00  0.100000D+01
   p     1 1.00
  0.727000D+00  0.100000D+01
  
 10  0
   s     4 1.00
  0.130100D+02  0.196850D-01
  0.196200D+01  0.137977D+00
  0.444600D+00  0.478148D+00
  0.122000D+00  0.501240D+00
   s     1 1.00
  0.122000D+00  0.100000D+01
   p     1 1.00
  0.727000D+00  0.100000D+01
  
 11  0
   s     4 1.00
  0.130100D+02  0.196850D-01
  0.196200D+01  0.137977D+00
  0.444600D+00  0.478148D+00
  0.122000D+00  0.501240D+00
   s     1 1.00
  0.122000D+00  0.100000D+01
   p     1 1.00
  0.727000D+00  0.100000D+01
  
 12  0
   s     4 1.00
  0.130100D+02  0.196850D-01
  0.196200D+01  0.137977D+00
  0.444600D+00  0.478148D+00
  0.122000D+00  0.501240D+00
   s     1 1.00
  0.122000D+00  0.100000D+01
   p     1 1.00
  0.727000D+00  0.100000D+01
  
 13  0
   s     4 1.00
  0.130100D+02  0.196850D-01
  0.196200D+01  0.137977D+00
  0.444600D+00  0.478148D+00
  0.122000D+00  0.501240D+00
   s     1 1.00
  0.122000D+00  0.100000D+01
   p     1 1.00
  0.727000D+00  0.100000D+01
  
 14  0
   s     4 1.00
  0.130100D+02  0.196850D-01
  0.196200D+01  0.137977D+00
  0.444600D+00  0.478148D+00
  0.122000D+00  0.501240D+00
   s     1 1.00
  0.122000D+00  0.100000D+01
   p     1 1.00
  0.727000D+00  0.100000D+01
  
[MO]
 Sym= __1_A__
 Ene=   1.00000000000000     
 Spin= Alpha
 Occup=    1.00000000000000     
                     1  2.306503916176238E-004
                     2  0.998097278411892     
                     3  6.609660780776754E-004
                     4  1.937160012442381E-003
                     5  6.412576874770393E-003
                     6  5.941957794081061E-003
                     7 -4.310585725498095E-003
                     8  4.312862557029896E-003
                     9 -9.042861894598487E-004
                    10  3.245711284727424E-004
                    11 -5.181622012134363E-004
                    12 -1.770500070009818E-003
                    13  2.785540200312372E-003
                    14 -2.495889708117862E-003
                    15  1.729853801228916E-006
                    16 -6.047693746330338E-005
                    17 -2.186036885835403E-005
                    18  4.472364489091052E-005
                    19  4.245830051871203E-005
                    20 -2.384543169253471E-004
                    21  4.466431265641831E-004
                    22 -2.078570931520340E-004
                    23  1.317583014413696E-004
                    24 -3.954145132996608E-004
                    25 -4.127147525801346E-005
                    26 -1.074401793695695E-004
                    27  3.504690986390614E-005
                    28  5.729132467646160E-005
                    29 -1.537201585467528E-005
                    30 -1.018866087982112E-004
                    31 -1.963473966485842E-005
                    32 -3.443321360389778E-004
                    33  6.275205027465104E-004
                    34  2.529937101433802E-004
                    35 -6.959931972081540E-005
                    36 -3.436581706067836E-003
                    37 -1.887102673888422E-004
                    38 -2.279322065888045E-004
                    39  2.062449217290051E-004
                    40 -7.743728075127689E-005
                    41  7.550146044924550E-004
                    42  4.763576458498352E-003
                    43  7.642229743241426E-004
                    44 -3.114672484848282E-003
                    45 -1.851887222132852E-004
                    46  2.603703557919713E-005
                    47  1.322871752806294E-005
                    48  1.824201505202478E-004
                    49  3.984401756051808E-005
                    50  5.226868037768017E-004
                    51  5.920064715040501E-004
                    52 -9.209570375922198E-005
                    53 -1.296618902867788E-004
                    54 -3.350895214376691E-004
                    55  3.541999139020305E-005
                    56 -4.673732683314669E-005
                    57 -5.281186895922238E-008
                    58  3.435198174315078E-005
                    59  2.112606260374294E-006
                    60 -3.467350951130907E-005
                    61  2.046978795933574E-005
                    62 -6.757903027548275E-004
                    63 -2.628277945853091E-003
                    64 -3.430439825193354E-005
                    65  2.327364143629307E-003
                    66  2.410114693560022E-004
                    67 -1.355725013455215E-004
                    68 -5.446019490024603E-004
                    69  8.584944143063409E-004
                    70  1.440243220366361E-005
                    71  5.480174336657976E-004
                    72  1.466421568864776E-003
                    73 -1.283279145817654E-004
                    74 -1.475907939232745E-003
                    75 -6.287921224153260E-005
                    76 -3.317555664088662E-005
                    77  1.410523395628613E-005
                    78  7.843177375603703E-005
                    79 -2.534041054962873E-006
                    80  4.022291643114259E-004
                    81  1.925981357062030E-004
                    82 -7.372570814275215E-005
                    83 -5.708583217829044E-005
                    84  1.044943092315114E-005
                    85 -2.291024219083405E-005
                    86 -1.294349651316870E-004
                    87  1.475212340213610E-005
                    88  5.332519154257712E-006
                    89  1.668416978672183E-005
                    90 -7.015764563546662E-005
                    91 -1.154478580743866E-005
                    92 -5.392119886820936E-005
                    93 -6.134930780048578E-004
                    94  2.539288938382661E-004
                    95 -7.361239588959274E-004
                    96  4.638145524201704E-004
                    97 -1.671405329688095E-004
                    98  3.505727923414420E-004
                    99  2.826324077573702E-004
                   100  5.215977602364389E-005
                   101  3.551044380481281E-004
                   102 -2.257439456560433E-003
                   103 -2.198955534465573E-004
                   104  1.677323897159934E-004
                   105 -6.043495358906447E-005
                   106 -1.849086250650941E-006
                   107 -5.570162037021894E-006
                   108  3.821094446212062E-005
                   109 -7.103914840217658E-006
                   110 -4.242975164279011E-005
                   111 -2.049257684460516E-004
                   112  1.861613260575572E-005
                   113 -2.265047749874290E-004
                   114  5.571052695547497E-005
                   115 -1.741082718909160E-005
                   116  2.777368793816829E-005
                   117  1.422288625817359E-005
                   118  1.854656913806525E-005
                   119 -1.147279476521870E-005
                   120 -1.523878272219660E-005
                   121 -6.896886295562456E-006
                   122 -2.987937780405342E-004
                   123 -7.576914777975982E-004
                   124  1.064798520405736E-004
                   125  8.561728734413433E-004
                   126 -4.344458101326880E-004
                   127 -4.864195826048209E-005
                   128 -2.702840411562144E-005
                   129  5.416235916761286E-004
                   130 -2.964241629243779E-005
                   131  2.528049813252714E-004
                   132  2.696129368322103E-003
                   133  6.135960139547481E-005
                   134  4.247029677498556E-004
                   135  2.854304105411446E-005
                   136  7.782104859035515E-007
                   137 -4.908046849750786E-006
                   138 -1.549994428173257E-005
                   139  8.958077141874311E-006
                   140  2.397994715835623E-004
                   141  3.578768214499302E-004
                   142  2.058296196168321E-006
                   143 -3.670461332720856E-004
                   144 -2.725745494607077E-005
                   145 -3.464613807029120E-005
                   146 -2.206631486686420E-005
                   147 -2.530193428637049E-006
                   148 -1.336887743515822E-005
                   149 -4.928714885962734E-006
                   150 -7.960465831514539E-005
                   151 -2.233421252023882E-006
                   152 -1.373533949657994E-004
                   153 -2.277292003344120E-004
                   154 -2.317663655700516E-005
                   155  4.846453550625876E-004
                   156 -3.517182905873421E-004
                   157 -3.713380072462112E-005
                   158 -5.795730420623524E-005
                   159 -1.633614363066662E-004
                   160 -3.557658048463408E-005
                   161  2.310867985520252E-004
                   162 -1.003016306437315E-003
                   163  2.193726152910132E-005
                   164  9.080167137126169E-004
                   165 -1.731533683504494E-005
                   166  8.152142835067973E-006
                   167  2.556792290588404E-006
                   168  1.598729255151860E-005
                   169  5.474184771292502E-006
                   170 -7.718220309763793E-005
                   171 -3.384949249155414E-005
                   172  1.000702559396530E-005
                   173  1.891148594267196E-005
                   174  7.515401661413434E-006
                   175 -1.084755208153487E-005
                   176 -6.066040901169670E-006
                   177  8.971553249822557E-007
                   178 -5.771154552447930E-006
                   179  2.660716159160545E-007
                   180 -5.488360710737345E-006
                   181 -3.583197020642228E-006
                   182 -1.503793317085238E-004
                   183 -4.665569219255366E-004
                   184  3.569649981960044E-005
                   185  1.930482228050177E-004
                   186 -1.912538826289863E-005
                   187 -1.662295522435007E-005
                   188 -8.356311242014146E-005
                   189  9.105736837838993E-005
                   190 -8.050789503579997E-006
                   191  3.716352820689585E-004
                   192 -4.155435798076883E-004
                   193 -1.742263988120811E-004
                   194  2.026853109102858E-003
                   195 -7.093634664100180E-006
                   196  3.973340907061495E-006
                   197  3.380026369648354E-007
                   198  2.124077843870954E-006
                   199 -5.767131358748164E-007
                   200 -1.281904067467931E-004
                   201 -3.050691724392301E-004
                   202  1.280919815455298E-005
                   203  6.597802893519534E-005
                   204  2.623230688592259E-005
                   205  3.505366571336712E-006
                   206  2.717114329933976E-006
                   207  4.362807019215868E-008
                   208  2.369159834357368E-005
                   209 -1.866042734041735E-006
                   210 -4.734271698656673E-006
                   211 -3.261314653308668E-006
                   212  1.426434794801682E-003
                   213 -1.553114872472113E-003
                   214  1.232487067462897E-004
                   215  3.622632248737953E-004
                   216  7.070783083871679E-005
                   217  2.131719143364323E-003
                   218 -1.875224350846624E-003
                   219  1.651287958605476E-004
                   220  4.127420201393898E-005
                   221 -4.485120341064894E-004
                   222 -4.712692823667716E-004
                   223 -2.241047425379023E-004
                   224 -9.362963543020087E-005
                   225  4.946659906308066E-006
                   226  3.998767636747145E-005
                   227 -3.054090063286412E-004
                   228 -4.936852545344490E-004
                   229 -3.167925997750343E-005
                   230  1.483157754377294E-005
                   231 -4.914921081185665E-005
                   232 -1.454402215066276E-006
                   233 -6.917836513166088E-004
                   234 -1.403106754242305E-006
                   235 -1.242875879726058E-006
                   236  2.082881474865910E-006
                   237 -1.258777548705601E-004
                   238 -2.666818612044152E-004
                   239  1.799362736922523E-005
                   240 -3.721417061292594E-006
                   241  2.058830000534131E-005
                   242 -1.066348894622952E-005
                   243  1.197495110408958E-004
                   244  3.037919976732586E-005
                   245  1.596830746522544E-006
                   246  1.656003888132106E-006
 Sym= __2_A__
 Ene=   2.00000000000000     
 Spin= Alpha
 Occup=    1.00000000000000     
                     1 -5.097864950348430E-006
                     2 -8.754460752189024E-005
                     3  1.633608435579833E-003
                     4 -2.131089929858445E-005
                     5  1.196695270961703E-003
                     6  1.635668572395675E-003
                     7  1.251485174991944E-005
                     8 -2.063085597326460E-004
                     9 -1.554554056011270E-004
                    10  1.064975955893289E-004
                    11 -2.943138570578067E-005
                    12  1.454608611576438E-004
                    13  1.339009704145448E-004
                    14  4.560830973479815E-005
                    15 -6.311635518675705E-005
                    16  1.559848757291336E-005
                    17 -7.209100533630199E-006
                    18  4.540971429164112E-005
                    19 -1.571056688196693E-006
                    20  1.207250061282779E-004
                    21 -7.183258822007100E-005
                    22  2.880893914570298E-005
                    23  1.206555134512479E-004
                    24 -6.352446201915339E-005
                    25 -5.990424408442823E-005
                    26  1.290775773531026E-004
                    27 -4.172461549226581E-006
                    28 -1.280163528238427E-005
                    29 -4.480701484297967E-006
                    30  1.250872854134507E-004
                    31  3.611623766204393E-005
                    32   1.00091754802786     
                    33  8.706187121464155E-003
                    34  2.826113401209565E-003
                    35 -8.347079473729219E-003
                    36 -2.187417103878412E-003
                    37  4.852556562529006E-004
                    38  6.742708617420018E-005
                    39  1.068119780295553E-003
                    40 -1.809398392405740E-004
                    41 -1.702018670989282E-004
                    42  3.047492600634497E-003
                    43 -1.250266635528893E-004
                    44 -1.811890777409315E-004
                    45  3.044822983231039E-004
                    46  1.849685521396479E-005
                    47 -4.830362635513916E-005
                    48  3.729600704644702E-004
                    49 -1.295744705144406E-005
                    50 -1.000481773822440E-003
                    51 -2.007146552312578E-004
                    52  1.423933067652987E-004
                    53 -1.445195515520328E-004
                    54  2.007580246124984E-005
                    55 -1.050741650889996E-005
                    56  2.846896390241841E-004
                    57 -1.103848448844586E-005
                    58 -1.884230167391158E-005
                    59 -1.694128833587343E-005
                    60  7.207114678837981E-005
                    61  1.362138033412961E-005
                    62  1.400313274323467E-002
                    63 -1.775100876104364E-003
                    64 -2.865390744766794E-004
                    65  2.945225177402117E-003
                    66 -1.728479858144312E-004
                    67  4.687568725096291E-005
                    68  3.170542587699933E-004
                    69  3.282367009348374E-005
                    70 -2.777570338975467E-005
                    71  3.834839717890859E-004
                    72  4.286358950536306E-004
                    73  1.344373559101055E-004
                    74 -1.808693242967063E-003
                    75 -4.425753255613677E-006
                    76  2.564384556165736E-005
                    77  7.056376823198798E-006
                    78 -4.009697023013432E-005
                    79 -3.090656964975619E-006
                    80 -4.662975250864974E-004
                    81 -4.090452603076686E-004
                    82  2.098112108698965E-005
                    83  7.889006955249246E-004
                    84  8.110819976256730E-006
                    85  4.361287242305329E-005
                    86  1.076129782835503E-004
                    87  1.483851444325027E-005
                    88 -1.877767011891733E-005
                    89 -2.042921601360437E-005
                    90 -2.431588339318896E-005
                    91  1.995963597625189E-006
                    92  1.568796000422468E-002
                    93 -1.705455796916214E-003
                    94 -3.370301980463891E-004
                    95  3.261726770791526E-003
                    96 -2.146423049616304E-004
                    97  9.171828803779969E-005
                    98 -3.044263057572173E-004
                    99 -3.948086111239269E-005
                   100  5.198416932092979E-005
                   101 -6.543719025497073E-004
                   102  5.642849078816359E-005
                   103 -1.167379583352260E-004
                   104  1.674720660712411E-003
                   105  1.402777505314629E-006
                   106 -1.415774389030856E-005
                   107 -7.812234994736196E-007
                   108 -3.166785739925048E-005
                   109 -2.034526656920673E-006
                   110 -3.183714628696304E-004
                   111  4.869000474327724E-004
                   112 -2.583894054282602E-005
                   113  6.904357352818992E-004
                   114 -3.911875289221254E-005
                   115 -5.015754964517742E-005
                   116  9.556535420657519E-005
                   117 -8.608772145297714E-006
                   118  2.077729394805260E-005
                   119 -7.216291393180580E-006
                   120 -3.280176623451805E-005
                   121  1.628228364725976E-006
                   122 -1.260765576633146E-004
                   123 -7.651065757772404E-004
                   124  2.411614823289374E-004
                   125 -2.790043081378298E-004
                   126 -1.645064976160715E-004
                   127  1.698584973434087E-005
                   128 -5.309757834289945E-005
                   129  6.096813467565671E-004
                   130 -1.630941664886083E-005
                   131  7.782677602004606E-005
                   132  6.894600368987559E-004
                   133 -3.595706399368486E-005
                   134  4.170193273016170E-004
                   135  4.565008808179085E-007
                   136  4.010553300780440E-005
                   137  1.396403794002680E-006
                   138 -3.379225680207456E-005
                   139 -3.309714515689804E-006
                   140  1.990497942363866E-004
                   141 -2.618100089848605E-004
                   142 -1.587746771816842E-006
                   143 -2.493556765995672E-004
                   144  2.201439701996899E-005
                   145 -1.639062301704566E-005
                   146  1.487850305704406E-005
                   147 -2.270816922698775E-006
                   148 -9.445086874315464E-006
                   149 -3.789484992745577E-006
                   150 -2.159697357158700E-005
                   151  7.021401662755485E-007
                   152 -8.278480649341116E-005
                   153 -7.309686866160890E-004
                   154  2.502184601271881E-004
                   155 -3.021332171840909E-004
                   156 -1.419172915547552E-004
                   157 -8.503007432961167E-007
                   158  3.425498803600641E-005
                   159  5.459911256387185E-004
                   160  4.311597423492998E-006