[Molden Format]
[Atoms] AU
  N     1    7     0.0000000000    0.0000000000   -4.2907334100        
  C     2    6     0.0000000000    0.0000000000   -1.7772236300        
  C     3    6     0.0000000000   -2.3389203600   -0.4111016300        
  C     4    6     0.0000000000    2.3389203600   -0.4111016300        
  C     5    6     0.0000000000   -2.2998668500    2.1639215300        
  C     6    6     0.0000000000    2.2998668500    2.1639215300        
  C     7    6     0.0000000000    0.0000000000    3.4755251800        
  H     8    1     0.0000000000   -1.2866404800   -5.0844826000        
  H     9    1     0.0000000000    1.4474705400   -5.1837012500        
  H    10    1     0.0000000000   -4.0745407300   -1.4447408500        
  H    11    1     0.0000000000    4.0745407300   -1.4447408500        
  H    12    1     0.0000000000   -4.0420632100    3.1963889500        
  H    13    1     0.0000000000    4.0420632100    3.1963889500        
  H    14    1     0.0000000000    0.0000000000    5.5020335600        
[5D]
[7F]
[GTO]
  1  0
   s    12 1.00
  0.114200D+05  0.172695D-04
  0.171200D+04  0.134411D-03
  0.389300D+03  0.694561D-03
  0.110000D+03  0.278531D-02
  0.355700D+02  0.863457D-02
  0.125400D+02  0.199805D-01
  0.464400D+01  0.262908D-01
  0.129300D+01 -0.243845D-01
  0.511800D+00 -0.924934D-01
  0.178700D+00 -0.339683D+00
  0.246240D-01  0.345111D+00
  0.112530D-01  0.752750D+00
   s    10 1.00
  0.114200D+05  0.523000D-03
  0.171200D+04  0.404500D-02
  0.389300D+03  0.207750D-01
  0.110000D+03  0.807269D-01
  0.355700D+02  0.233074D+00
  0.125400D+02  0.433501D+00
  0.464400D+01  0.347472D+00
  0.129300D+01  0.412620D-01
  0.511800D+00 -0.850799D-02
  0.178700D+00  0.238400D-02
   s    10 1.00
  0.114200D+05 -0.115000D-03
  0.171200D+04 -0.895000D-03
  0.389300D+03 -0.462400D-02
  0.110000D+03 -0.185280D-01
  0.355700D+02 -0.573390D-01
  0.125400D+02 -0.132076D+00
  0.464400D+01 -0.172510D+00
  0.129300D+01  0.151814D+00
  0.511800D+00  0.599944D+00
  0.178700D+00  0.387462D+00
   s     1 1.00
  0.129300D+01  0.100000D+01
   s     1 1.00
  0.178700D+00  0.100000D+01
   p     5 1.00
  0.266300D+02  0.146700D-01
  0.594800D+01  0.917640D-01
  0.174200D+01  0.298683D+00
  0.555000D+00  0.498487D+00
  0.172500D+00  0.337023D+00
   p     1 1.00
  0.174200D+01  0.100000D+01
   p     1 1.00
  0.555000D+00  0.100000D+01
   d     1 1.00
  0.165400D+01  0.100000D+01
   d     1 1.00
  0.469000D+00  0.100000D+01
   f     1 1.00
  0.109300D+01  0.100000D+01
  
  2  0
   s    10 1.00
  0.823600D+04  0.531000D-03
  0.123500D+04  0.410800D-02
  0.280800D+03  0.210870D-01
  0.792700D+02  0.818530D-01
  0.255900D+02  0.234817D+00
  0.899700D+01  0.434401D+00
  0.331900D+01  0.346129D+00
  0.905900D+00  0.393780D-01
  0.364300D+00 -0.898300D-02
  0.128500D+00  0.238500D-02
   s    10 1.00
  0.823600D+04 -0.113000D-03
  0.123500D+04 -0.878000D-03
  0.280800D+03 -0.454000D-02
  0.792700D+02 -0.181330D-01
  0.255900D+02 -0.557600D-01
  0.899700D+01 -0.126895D+00
  0.331900D+01 -0.170352D+00
  0.905900D+00  0.140382D+00
  0.364300D+00  0.598684D+00
  0.128500D+00  0.395389D+00
   s     1 1.00
  0.905900D+00  0.100000D+01
   s     1 1.00
  0.364300D+00  0.100000D+01
   p     5 1.00
  0.187100D+02  0.140310D-01
  0.413300D+01  0.868660D-01
  0.120000D+01  0.290216D+00
  0.382700D+00  0.501008D+00
  0.120900D+00  0.343406D+00
   p     1 1.00
  0.382700D+00  0.100000D+01
   p     1 1.00
  0.120900D+00  0.100000D+01
   d     1 1.00
  0.109700D+01  0.100000D+01
   d     1 1.00
  0.318000D+00  0.100000D+01
   f     1 1.00
  0.761000D+00  0.100000D+01
  
  3  0
   s    10 1.00
  0.823600D+04  0.531000D-03
  0.123500D+04  0.410800D-02
  0.280800D+03  0.210870D-01
  0.792700D+02  0.818530D-01
  0.255900D+02  0.234817D+00
  0.899700D+01  0.434401D+00
  0.331900D+01  0.346129D+00
  0.905900D+00  0.393780D-01
  0.364300D+00 -0.898300D-02
  0.128500D+00  0.238500D-02
   s    10 1.00
  0.823600D+04 -0.113000D-03
  0.123500D+04 -0.878000D-03
  0.280800D+03 -0.454000D-02
  0.792700D+02 -0.181330D-01
  0.255900D+02 -0.557600D-01
  0.899700D+01 -0.126895D+00
  0.331900D+01 -0.170352D+00
  0.905900D+00  0.140382D+00
  0.364300D+00  0.598684D+00
  0.128500D+00  0.395389D+00
   s     1 1.00
  0.905900D+00  0.100000D+01
   s     1 1.00
  0.364300D+00  0.100000D+01
   p     5 1.00
  0.187100D+02  0.140310D-01
  0.413300D+01  0.868660D-01
  0.120000D+01  0.290216D+00
  0.382700D+00  0.501008D+00
  0.120900D+00  0.343406D+00
   p     1 1.00
  0.382700D+00  0.100000D+01
   p     1 1.00
  0.120900D+00  0.100000D+01
   d     1 1.00
  0.109700D+01  0.100000D+01
   d     1 1.00
  0.318000D+00  0.100000D+01
   f     1 1.00
  0.761000D+00  0.100000D+01
  
  4  0
   s    10 1.00
  0.823600D+04  0.531000D-03
  0.123500D+04  0.410800D-02
  0.280800D+03  0.210870D-01
  0.792700D+02  0.818530D-01
  0.255900D+02  0.234817D+00
  0.899700D+01  0.434401D+00
  0.331900D+01  0.346129D+00
  0.905900D+00  0.393780D-01
  0.364300D+00 -0.898300D-02
  0.128500D+00  0.238500D-02
   s    10 1.00
  0.823600D+04 -0.113000D-03
  0.123500D+04 -0.878000D-03
  0.280800D+03 -0.454000D-02
  0.792700D+02 -0.181330D-01
  0.255900D+02 -0.557600D-01
  0.899700D+01 -0.126895D+00
  0.331900D+01 -0.170352D+00
  0.905900D+00  0.140382D+00
  0.364300D+00  0.598684D+00
  0.128500D+00  0.395389D+00
   s     1 1.00
  0.905900D+00  0.100000D+01
   s     1 1.00
  0.364300D+00  0.100000D+01
   p     5 1.00
  0.187100D+02  0.140310D-01
  0.413300D+01  0.868660D-01
  0.120000D+01  0.290216D+00
  0.382700D+00  0.501008D+00
  0.120900D+00  0.343406D+00
   p     1 1.00
  0.382700D+00  0.100000D+01
   p     1 1.00
  0.120900D+00  0.100000D+01
   d     1 1.00
  0.109700D+01  0.100000D+01
   d     1 1.00
  0.318000D+00  0.100000D+01
   f     1 1.00
  0.761000D+00  0.100000D+01
  
  5  0
   s    10 1.00
  0.823600D+04  0.531000D-03
  0.123500D+04  0.410800D-02
  0.280800D+03  0.210870D-01
  0.792700D+02  0.818530D-01
  0.255900D+02  0.234817D+00
  0.899700D+01  0.434401D+00
  0.331900D+01  0.346129D+00
  0.905900D+00  0.393780D-01
  0.364300D+00 -0.898300D-02
  0.128500D+00  0.238500D-02
   s    10 1.00
  0.823600D+04 -0.113000D-03
  0.123500D+04 -0.878000D-03
  0.280800D+03 -0.454000D-02
  0.792700D+02 -0.181330D-01
  0.255900D+02 -0.557600D-01
  0.899700D+01 -0.126895D+00
  0.331900D+01 -0.170352D+00
  0.905900D+00  0.140382D+00
  0.364300D+00  0.598684D+00
  0.128500D+00  0.395389D+00
   s     1 1.00
  0.905900D+00  0.100000D+01
   s     1 1.00
  0.364300D+00  0.100000D+01
   p     5 1.00
  0.187100D+02  0.140310D-01
  0.413300D+01  0.868660D-01
  0.120000D+01  0.290216D+00
  0.382700D+00  0.501008D+00
  0.120900D+00  0.343406D+00
   p     1 1.00
  0.382700D+00  0.100000D+01
   p     1 1.00
  0.120900D+00  0.100000D+01
   d     1 1.00
  0.109700D+01  0.100000D+01
   d     1 1.00
  0.318000D+00  0.100000D+01
   f     1 1.00
  0.761000D+00  0.100000D+01
  
  6  0
   s    10 1.00
  0.823600D+04  0.531000D-03
  0.123500D+04  0.410800D-02
  0.280800D+03  0.210870D-01
  0.792700D+02  0.818530D-01
  0.255900D+02  0.234817D+00
  0.899700D+01  0.434401D+00
  0.331900D+01  0.346129D+00
  0.905900D+00  0.393780D-01
  0.364300D+00 -0.898300D-02
  0.128500D+00  0.238500D-02
   s    10 1.00
  0.823600D+04 -0.113000D-03
  0.123500D+04 -0.878000D-03
  0.280800D+03 -0.454000D-02
  0.792700D+02 -0.181330D-01
  0.255900D+02 -0.557600D-01
  0.899700D+01 -0.126895D+00
  0.331900D+01 -0.170352D+00
  0.905900D+00  0.140382D+00
  0.364300D+00  0.598684D+00
  0.128500D+00  0.395389D+00
   s     1 1.00
  0.905900D+00  0.100000D+01
   s     1 1.00
  0.364300D+00  0.100000D+01
   p     5 1.00
  0.187100D+02  0.140310D-01
  0.413300D+01  0.868660D-01
  0.120000D+01  0.290216D+00
  0.382700D+00  0.501008D+00
  0.120900D+00  0.343406D+00
   p     1 1.00
  0.382700D+00  0.100000D+01
   p     1 1.00
  0.120900D+00  0.100000D+01
   d     1 1.00
  0.109700D+01  0.100000D+01
   d     1 1.00
  0.318000D+00  0.100000D+01
   f     1 1.00
  0.761000D+00  0.100000D+01
  
  7  0
   s    10 1.00
  0.823600D+04  0.531000D-03
  0.123500D+04  0.410800D-02
  0.280800D+03  0.210870D-01
  0.792700D+02  0.818530D-01
  0.255900D+02  0.234817D+00
  0.899700D+01  0.434401D+00
  0.331900D+01  0.346129D+00
  0.905900D+00  0.393780D-01
  0.364300D+00 -0.898300D-02
  0.128500D+00  0.238500D-02
   s    10 1.00
  0.823600D+04 -0.113000D-03
  0.123500D+04 -0.878000D-03
  0.280800D+03 -0.454000D-02
  0.792700D+02 -0.181330D-01
  0.255900D+02 -0.557600D-01
  0.899700D+01 -0.126895D+00
  0.331900D+01 -0.170352D+00
  0.905900D+00  0.140382D+00
  0.364300D+00  0.598684D+00
  0.128500D+00  0.395389D+00
   s     1 1.00
  0.905900D+00  0.100000D+01
   s     1 1.00
  0.364300D+00  0.100000D+01
   p     5 1.00
  0.187100D+02  0.140310D-01
  0.413300D+01  0.868660D-01
  0.120000D+01  0.290216D+00
  0.382700D+00  0.501008D+00
  0.120900D+00  0.343406D+00
   p     1 1.00
  0.382700D+00  0.100000D+01
   p     1 1.00
  0.120900D+00  0.100000D+01
   d     1 1.00
  0.109700D+01  0.100000D+01
   d     1 1.00
  0.318000D+00  0.100000D+01
   f     1 1.00
  0.761000D+00  0.100000D+01
  
  8  0
   s     4 1.00
  0.130100D+02  0.196850D-01
  0.196200D+01  0.137977D+00
  0.444600D+00  0.478148D+00
  0.122000D+00  0.501240D+00
   s     1 1.00
  0.122000D+00  0.100000D+01
   p     1 1.00
  0.727000D+00  0.100000D+01
  
  9  0
   s     4 1.00
  0.130100D+02  0.196850D-01
  0.196200D+01  0.137977D+00
  0.444600D+00  0.478148D+00
  0.122000D+00  0.501240D+00
   s     1 1.00
  0.122000D+00  0.100000D+01
   p     1 1.00
  0.727000D+00  0.100000D+01
  
 10  0
   s     4 1.00
  0.130100D+02  0.196850D-01
  0.196200D+01  0.137977D+00
  0.444600D+00  0.478148D+00
  0.122000D+00  0.501240D+00
   s     1 1.00
  0.122000D+00  0.100000D+01
   p     1 1.00
  0.727000D+00  0.100000D+01
  
 11  0
   s     4 1.00
  0.130100D+02  0.196850D-01
  0.196200D+01  0.137977D+00
  0.444600D+00  0.478148D+00
  0.122000D+00  0.501240D+00
   s     1 1.00
  0.122000D+00  0.100000D+01
   p     1 1.00
  0.727000D+00  0.100000D+01
  
 12  0
   s     4 1.00
  0.130100D+02  0.196850D-01
  0.196200D+01  0.137977D+00
  0.444600D+00  0.478148D+00
  0.122000D+00  0.501240D+00
   s     1 1.00
  0.122000D+00  0.100000D+01
   p     1 1.00
  0.727000D+00  0.100000D+01
  
 13  0
   s     4 1.00
  0.130100D+02  0.196850D-01
  0.196200D+01  0.137977D+00
  0.444600D+00  0.478148D+00
  0.122000D+00  0.501240D+00
   s     1 1.00
  0.122000D+00  0.100000D+01
   p     1 1.00
  0.727000D+00  0.100000D+01
  
 14  0
   s     4 1.00
  0.130100D+02  0.196850D-01
  0.196200D+01  0.137977D+00
  0.444600D+00  0.478148D+00
  0.122000D+00  0.501240D+00
   s     1 1.00
  0.122000D+00  0.100000D+01
   p     1 1.00
  0.727000D+00  0.100000D+01
  
[MO]
 Sym= __1_A__
 Ene=   1.00000000000000     
 Spin= Alpha
 Occup=    1.00000000000000     
                     1  6.861370729668144E-005
                     2  0.997464213620799     
                     3  1.363261970074051E-002
                     4  2.652414437615084E-003
                     5 -6.130121230857846E-004
                     6 -9.218086969660622E-012
                     7 -3.202768062193279E-004
                     8  3.852232444904318E-003
                     9 -5.904150156037211E-012
                    10 -2.316057417718716E-004
                    11 -3.438295464206489E-004
                    12  1.026099636355010E-011
                    13 -1.437410799879707E-004
                    14 -1.520541586994778E-004
                    15  2.296393515094040E-004
                    16 -4.388842676019963E-012
                    17  2.223066952271045E-004
                    18 -5.544956949706084E-004
                    19 -8.598720926732567E-013
                    20  1.591232186563671E-004
                    21  6.327425049228967E-012
                    22 -1.201403671396452E-005
                    23  4.046978328094104E-004
                    24 -3.169995962566161E-012
                    25 -4.245312242925263E-004
                    26  1.398479820998330E-012
                    27 -3.449112334059156E-005
                    28  4.441930038212062E-004
                    29 -2.065833560250120E-012
                    30 -1.459942363923835E-012
                    31  7.621723613678388E-005
                    32 -3.903986959406977E-004
                    33  3.069753659653074E-003
                    34  1.876786837081398E-004
                    35 -3.205493616500790E-004
                    36 -5.091329800379533E-012
                    37  1.490668302122120E-004
                    38 -7.963606329984701E-003
                    39  4.828892528559415E-012
                    40 -5.859260064129203E-005
                    41  3.402540917270927E-004
                    42  1.123949512148123E-011
                    43  1.418366914558056E-004
                    44  3.415637475581204E-003
                    45  3.679250434204971E-004
                    46  2.369754268433788E-012
                    47  1.497133903344111E-005
                    48  1.530272844723100E-004
                    49 -5.095369002631323E-012
                    50  5.090118565441274E-006
                    51  6.159440961379191E-012
                    52 -2.013091147033959E-004
                    53 -4.783699872393012E-004
                    54  1.566239020061092E-011
                    55 -1.629138258447412E-004
                    56 -2.527743777971989E-012
                    57  8.982592693041513E-006
                    58  1.419098787994464E-004
                    59  2.885870154655521E-012
                    60 -2.872639128756277E-013
                    61 -2.995863616555846E-006
                    62 -1.937068364159116E-004
                    63 -1.860400428993369E-003
                    64  6.051867854746844E-005
                    65  4.838962014671026E-004
                    66  2.327189611287347E-012
                    67 -9.853350411265179E-004
                    68  1.294127311519119E-003
                    69  2.901742249361557E-013
                    70 -7.911874468251919E-005
                    71  5.666261272094503E-004
                    72 -1.083918072304203E-011
                    73 -1.418019965272217E-004
                    74 -5.884455529909377E-005
                    75  1.011643809909246E-004
                    76  5.003058466578043E-012
                    77 -1.676226400258870E-005
                    78  4.153700273583516E-005
                    79  2.828908746404611E-012
                    80 -5.639100508216558E-005
                    81 -1.346248210879089E-011
                    82  2.690311668827737E-004
                    83 -4.075294999016560E-005
                    84 -4.345938616679676E-012
                    85 -9.965269365116178E-005
                    86  2.061095027942610E-012
                    87 -3.806494111101728E-005
                    88  2.484494304795524E-005
                    89 -4.398983034199708E-012
                    90  8.001605420935735E-013
                    91  7.999995914377634E-006
                    92 -1.877962539771963E-004
                    93 -1.709271883635977E-003
                    94  3.178793069395392E-005
                    95  6.753334772392106E-004
                    96  1.758182717459306E-011
                    97  8.719560902515550E-004
                    98  1.151674763497840E-003
                    99 -2.038339203060092E-011
                   100 -8.842375349202095E-005
                   101  5.410014943210728E-004
                   102 -1.163644762963489E-011
                   103  2.279405451494691E-004
                   104  2.511977479558675E-004
                   105  1.088200927504199E-004
                   106 -1.808406381939324E-013
                   107  3.173287091561613E-005
                   108  3.497326797228770E-005
                   109  3.291434193780516E-012
                   110 -1.824649251212539E-004
                   111  4.816807903903146E-012
                   112 -2.881351901269813E-004
                   113 -1.072175460651463E-004
                   114  1.242258545288590E-011
                   115 -1.122266868438462E-004
                   116  2.027935025385739E-012
                   117  4.255063045050907E-005
                   118  2.854406522744644E-005
                   119 -6.239996752648496E-012
                   120  3.944505840981808E-013
                   121 -1.034257664716944E-005
                   122 -1.396096472734817E-004
                   123  1.320358319100023E-004
                   124  1.145372659773524E-004
                   125  7.391731446327789E-005
                   126 -1.227631842006203E-011
                   127  6.057797185041969E-005
                   128 -9.424325512193727E-004
                   129  1.743353428674231E-011
                   130 -2.587785561265685E-005
                   131  3.347839025971427E-004
                   132  1.573628076021398E-011
                   133 -1.640555643085903E-004
                   134  4.099778720780312E-004
                   135 -1.674319596998227E-005
                   136 -1.489509401587047E-012
                   137  1.927903650599486E-006
                   138  3.551973465543264E-006
                   139 -2.704238303410891E-012
                   140 -1.416312233225216E-004
                   141 -2.713166220383478E-012
                   142  1.759208249623200E-004
                   143  1.646743993863274E-005
                   144  1.093419349352911E-011
                   145 -3.607972359035567E-005
                   146  3.338239008794068E-012
                   147  4.546721366780746E-006
                   148 -7.657501667788404E-006
                   149  1.346679434324892E-012
                   150  2.900215696121583E-012
                   151 -1.699888529231108E-006
                   152 -1.429086512489286E-004
                   153  8.381046891039878E-005
                   154  1.076571258760017E-004
                   155  1.698774962228640E-004
                   156 -1.724970466052206E-011
                   157 -5.142850387206400E-005
                   158 -8.937465976617398E-004
                   159  1.897391586242293E-011
                   160  3.091605934704843E-005
                   161  3.061745768615962E-004
                   162  1.138624026134872E-011
                   163  6.068692901193944E-005
                   164  6.971507557902375E-004
                   165 -1.853370467497818E-005
                   166  2.806996313651822E-012
                   167  1.350140652795680E-006
                   168  2.593357418615602E-006
                   169  7.989577383959418E-014
                   170 -1.546231862342840E-004
                   171 -6.434364234198308E-013
                   172 -2.125692927218772E-004
                   173  1.623077073669110E-005
                   174 -8.420713297191281E-012
                   175 -4.200482860972441E-005
                   176 -6.669467067300389E-014
                   177 -1.712039117536360E-008
                   178 -9.653956752277762E-006
                   179 -1.119212563814801E-012
                   180  6.251764913198437E-013
                   181  3.320309075524096E-006
                   182 -1.188917220671282E-004
                   183 -3.146885981439318E-004
                   184  2.708326032359599E-005
                   185  1.464349119152589E-004
                   186  2.129450676256703E-011
                   187 -4.188758453002218E-006
                   188 -3.367546668794974E-005
                   189 -2.116590778387004E-011
                   190 -1.270107327714125E-005
                   191 -1.515200225779109E-005
                   192 -1.490138582954717E-011
                   193 -1.641055546880086E-004
                   194  1.755610187483448E-004
                   195  2.249013117122195E-005
                   196 -4.082458441071793E-012
                   197 -8.552343668982384E-009
                   198  1.050976672599710E-005
                   199 -1.105199910041314E-012
                   200  6.264015494729914E-005
                   201  1.145085418181910E-011
                   202  1.212469212361855E-005
                   203  4.168541659290130E-005
                   204  1.911881008700935E-012
                   205 -1.451833358841487E-005
                   206  2.597330702528663E-013
                   207 -1.300819824521708E-006
                   208  8.110045306952426E-006
                   209  1.429266070805671E-012
                   210 -1.175919732984446E-012
                   211 -1.601966703228861E-008
                   212  6.169035307652963E-003
                   213 -3.733976888276379E-003
                   214  2.558633310000811E-013
                   215  2.356055157141461E-004
                   216  2.294152148675794E-004
                   217  5.599043735174030E-003
                   218 -3.205697303161807E-003
                   219  1.346584292783861E-012
                   220 -3.679584541353960E-004
                   221  3.270151600492612E-004
                   222 -8.116746372855791E-004
                   223  1.919390861109491E-004
                   224 -2.651226452252655E-012
                   225 -3.370136226537497E-005
                   226 -5.112227934584962E-005
                   227 -8.399228440536250E-004
                   228  2.001556371130100E-004
                   229 -5.094054124223511E-012
                   230  2.248178832940095E-005
                   231 -7.266785532762383E-005
                   232 -2.838882723019502E-004
                   233 -2.988238290004803E-004
                   234  1.639612838741934E-012
                   235 -8.298432123400311E-006
                   236  9.206147870267957E-006
                   237 -2.395433834185239E-004
                   238 -3.363486171564733E-004
                   239  1.485641658884482E-012
                   240  7.275859391947765E-006
                   241  9.926793028728197E-006
                   242  8.797869211330898E-005
                   243 -1.662675739244294E-004
                   244 -2.159077550529762E-012
                   245  1.077235073380599E-006
                   246  9.867849598983773E-006
 Sym= __2_A__
 Ene=   2.00000000000000     
 Spin= Alpha
 Occup=    1.00000000000000     
                     1 -3.701497308779672E-005
                     2 -1.981939675085396E-004
                     3  1.726792954698722E-003
                     4  9.997068195319474E-005
                     5  1.493945326180048E-003
                     6  1.023924915264344E-012
                     7  4.864490796483559E-005
                     8  2.965583716374008E-003
                     9 -3.524409490771416E-013
                    10  1.164523090834769E-005
                    11 -5.584134847376394E-005
                    12  2.983210454429399E-012
                    13  2.941100374709362E-006
                    14 -4.290679487865298E-004
                    15  3.059770315742192E-005
                    16  3.276573410376188E-012
                    17 -3.428917024566190E-006
                    18  6.325604215240715E-005
                    19 -6.041331616173129E-013
                    20 -3.924791498574627E-004
                    21 -1.609000345249271E-012
                    22 -4.638121246892909E-005
                    23 -3.958011558874190E-004
                    24  5.149348051326090E-014
                    25  1.717632419587198E-004
                    26  3.386698992771041E-012
                    27  1.685045081931463E-005
                    28 -9.694219707693007E-006
                    29 -1.518242871744724E-013
                    30  2.523710561813856E-012
                    31  3.565209811801548E-006
                    32   1.00105582789215     
                    33  9.200543906707220E-003
                    34  2.660494547144245E-003
                    35 -7.747739424749984E-003
                    36  1.585102317016686E-011
                    37 -3.490551132990848E-006
                    38 -3.965712363546886E-003
                    39 -7.091367511661131E-012
                    40  1.011816478124253E-005
                    41  1.030316625401724E-003
                    42  9.621764971594979E-012
                    43 -4.147952864281885E-005
                    44  4.574282651596031E-003
                    45  4.613284078723732E-004
                    46  5.171051003726901E-014
                    47  3.014905797929846E-006
                    48 -4.333797453696430E-004
                    49 -4.653256015245954E-012
                    50  5.644648328791530E-004
                    51  1.802406345058536E-012
                    52 -2.898769189839980E-005
                    53  9.512872629080844E-004
                    54 -1.577379985290625E-012
                    55  3.755298719164076E-004
                    56 -2.161735215146426E-012
                    57 -1.448692920168770E-006
                    58 -2.125543147713134E-004
                    59  1.018829096452699E-012
                    60  1.972505774092896E-012
                    61 -5.515968882864783E-007
                    62  7.235918563653290E-003
                    63 -2.052758375659120E-003
                    64 -2.788974032727658E-004
                    65  3.069329999643698E-003
                    66  9.341964819116886E-012
                    67  1.320466294104398E-004
                    68 -6.134390900292588E-005
                    69 -1.084928411817026E-011
                    70  5.914130140139164E-004
                    71  2.630634718927758E-005
                    72 -2.778838233275065E-012
                    73 -2.173023891699773E-003
                    74  1.008078888736267E-004
                    75 -1.712038932774933E-005
                    76 -7.816152768400240E-013
                    77  1.383346603588757E-005
                    78  2.683807333767228E-005
                    79  1.917243246280429E-012
                    80  7.801640436795804E-004
                    81  6.911240145635757E-012
                    82 -4.348293279372410E-004
                    83 -6.605972096205520E-006
                    84 -1.944014452041975E-012
                    85  7.273058429847972E-005
                    86  2.952001655409756E-012
                    87  4.853188042619027E-005
                    88 -1.253968694134600E-004
                    89 -3.303619230405402E-012
                    90  1.314525548982332E-013
                    91  5.038313790098203E-005
                    92  7.228859289845488E-003
                    93 -2.043665614072590E-003
                    94 -2.812167345098522E-004
                    95  3.083384377313987E-003
                    96 -2.431418617773794E-011
                    97 -1.308830109574238E-004
                    98 -6.452500327556693E-005
                    99  2.320157917671796E-011
                   100 -6.090424790815549E-004
                   101  3.493905705775434E-005
                   102 -5.115250160432277E-012
                   103  2.140383115737881E-003
                   104  3.869099734972578E-005
                   105 -1.738783828528641E-005
                   106 -2.021990564883208E-012
                   107 -1.337475476684857E-005
                   108  2.647583118818728E-005
                   109 -2.942714169923212E-012
                   110  7.698920191281992E-004
                   111  6.977954846541576E-012
                   112  4.324643675363283E-004
                   113 -1.175223939422199E-005
                   114  1.013605434444714E-011
                   115  7.189353324642423E-005
                   116  3.410810809406734E-012
                   117 -4.504056377230943E-005
                   118 -1.262750577094780E-004
                   119 -1.158163104399209E-013
                   120  2.009093940379416E-012
                   121 -5.024166825891030E-005
                   122 -2.431322797567990E-004
                   123 -7.928815365727066E-004
                   124  2.251290734934822E-004
                   125 -1.003556850169875E-004
                   126 -4.103316079180455E-012
                   127 -2.352984842746143E-005
                   128 -2.211365198515077E-004
                   129  4.091438047520911E-013
                   130  1.692188694374242E-006
                   131  5.419176921000929E-004
                   132 -6.854191474910393E-012
                   133  3.407213515256081E-004
                   134  8.013388288794085E-004
                   135 -1.451792705087647E-005
                   136  2.349664728379819E-012
                   137  5.113519066001373E-005
                   138  1.356946718588900E-005
                   139 -3.194732023569306E-012
                   140 -2.997034188313717E-004
                   141  3.480737024633916E-012
                   142 -2.223218986477815E-004
                   143 -1.446402194655115E-005
                   144 -2.571391694166250E-012
                   145  9.126637662055212E-009
                   146 -4.710754250814720E-012
                   147 -4.097951125731298E-005
                   148 -3.934824109981886E-005
                   149 -1.286571267088765E-012
                   150 -1.019227361995443E-012
                   151 -5.878399245305174E-006
                   152 -2.411179782325851E-004
                   153 -7.821378990173813E-004
                   154  2.273202902661855E-004
                   155 -1.139340262805797E-004
                   156  9.451746277951600E-012
                   157  2.200743404352729E-005
                   158 -2.227866631325613E-004
                   159 -8.959175967795938E-012
                   160  6.204668026921099E-006