[Molden Format]
[Atoms] AU
  N     1    7     0.0000000000    0.0000000000   -4.2907334100        
  C     2    6     0.0000000000    0.0000000000   -1.7772236300        
  C     3    6     0.0000000000   -2.3389203600   -0.4111016300        
  C     4    6     0.0000000000    2.3389203600   -0.4111016300        
  C     5    6     0.0000000000   -2.2998668500    2.1639215300        
  C     6    6     0.0000000000    2.2998668500    2.1639215300        
  C     7    6     0.0000000000    0.0000000000    3.4755251800        
  H     8    1     0.0000000000   -1.2866404800   -5.0844826000        
  H     9    1     0.0000000000    1.4474705400   -5.1837012500        
  H    10    1     0.0000000000   -4.0745407300   -1.4447408500        
  H    11    1     0.0000000000    4.0745407300   -1.4447408500        
  H    12    1     0.0000000000   -4.0420632100    3.1963889500        
  H    13    1     0.0000000000    4.0420632100    3.1963889500        
  H    14    1     0.0000000000    0.0000000000    5.5020335600        
[5D]
[7F]
[GTO]
  1  0
   s    12 1.00
  0.114200D+05  0.172695D-04
  0.171200D+04  0.134411D-03
  0.389300D+03  0.694561D-03
  0.110000D+03  0.278531D-02
  0.355700D+02  0.863457D-02
  0.125400D+02  0.199805D-01
  0.464400D+01  0.262908D-01
  0.129300D+01 -0.243845D-01
  0.511800D+00 -0.924934D-01
  0.178700D+00 -0.339683D+00
  0.246240D-01  0.345111D+00
  0.112530D-01  0.752750D+00
   s    10 1.00
  0.114200D+05  0.523000D-03
  0.171200D+04  0.404500D-02
  0.389300D+03  0.207750D-01
  0.110000D+03  0.807269D-01
  0.355700D+02  0.233074D+00
  0.125400D+02  0.433501D+00
  0.464400D+01  0.347472D+00
  0.129300D+01  0.412620D-01
  0.511800D+00 -0.850799D-02
  0.178700D+00  0.238400D-02
   s    10 1.00
  0.114200D+05 -0.115000D-03
  0.171200D+04 -0.895000D-03
  0.389300D+03 -0.462400D-02
  0.110000D+03 -0.185280D-01
  0.355700D+02 -0.573390D-01
  0.125400D+02 -0.132076D+00
  0.464400D+01 -0.172510D+00
  0.129300D+01  0.151814D+00
  0.511800D+00  0.599944D+00
  0.178700D+00  0.387462D+00
   s     1 1.00
  0.129300D+01  0.100000D+01
   s     1 1.00
  0.178700D+00  0.100000D+01
   p     5 1.00
  0.266300D+02  0.146700D-01
  0.594800D+01  0.917640D-01
  0.174200D+01  0.298683D+00
  0.555000D+00  0.498487D+00
  0.172500D+00  0.337023D+00
   p     1 1.00
  0.174200D+01  0.100000D+01
   p     1 1.00
  0.555000D+00  0.100000D+01
   d     1 1.00
  0.165400D+01  0.100000D+01
   d     1 1.00
  0.469000D+00  0.100000D+01
   f     1 1.00
  0.109300D+01  0.100000D+01
  
  2  0
   s    10 1.00
  0.823600D+04  0.531000D-03
  0.123500D+04  0.410800D-02
  0.280800D+03  0.210870D-01
  0.792700D+02  0.818530D-01
  0.255900D+02  0.234817D+00
  0.899700D+01  0.434401D+00
  0.331900D+01  0.346129D+00
  0.905900D+00  0.393780D-01
  0.364300D+00 -0.898300D-02
  0.128500D+00  0.238500D-02
   s    10 1.00
  0.823600D+04 -0.113000D-03
  0.123500D+04 -0.878000D-03
  0.280800D+03 -0.454000D-02
  0.792700D+02 -0.181330D-01
  0.255900D+02 -0.557600D-01
  0.899700D+01 -0.126895D+00
  0.331900D+01 -0.170352D+00
  0.905900D+00  0.140382D+00
  0.364300D+00  0.598684D+00
  0.128500D+00  0.395389D+00
   s     1 1.00
  0.905900D+00  0.100000D+01
   s     1 1.00
  0.364300D+00  0.100000D+01
   p     5 1.00
  0.187100D+02  0.140310D-01
  0.413300D+01  0.868660D-01
  0.120000D+01  0.290216D+00
  0.382700D+00  0.501008D+00
  0.120900D+00  0.343406D+00
   p     1 1.00
  0.382700D+00  0.100000D+01
   p     1 1.00
  0.120900D+00  0.100000D+01
   d     1 1.00
  0.109700D+01  0.100000D+01
   d     1 1.00
  0.318000D+00  0.100000D+01
   f     1 1.00
  0.761000D+00  0.100000D+01
  
  3  0
   s    10 1.00
  0.823600D+04  0.531000D-03
  0.123500D+04  0.410800D-02
  0.280800D+03  0.210870D-01
  0.792700D+02  0.818530D-01
  0.255900D+02  0.234817D+00
  0.899700D+01  0.434401D+00
  0.331900D+01  0.346129D+00
  0.905900D+00  0.393780D-01
  0.364300D+00 -0.898300D-02
  0.128500D+00  0.238500D-02
   s    10 1.00
  0.823600D+04 -0.113000D-03
  0.123500D+04 -0.878000D-03
  0.280800D+03 -0.454000D-02
  0.792700D+02 -0.181330D-01
  0.255900D+02 -0.557600D-01
  0.899700D+01 -0.126895D+00
  0.331900D+01 -0.170352D+00
  0.905900D+00  0.140382D+00
  0.364300D+00  0.598684D+00
  0.128500D+00  0.395389D+00
   s     1 1.00
  0.905900D+00  0.100000D+01
   s     1 1.00
  0.364300D+00  0.100000D+01
   p     5 1.00
  0.187100D+02  0.140310D-01
  0.413300D+01  0.868660D-01
  0.120000D+01  0.290216D+00
  0.382700D+00  0.501008D+00
  0.120900D+00  0.343406D+00
   p     1 1.00
  0.382700D+00  0.100000D+01
   p     1 1.00
  0.120900D+00  0.100000D+01
   d     1 1.00
  0.109700D+01  0.100000D+01
   d     1 1.00
  0.318000D+00  0.100000D+01
   f     1 1.00
  0.761000D+00  0.100000D+01
  
  4  0
   s    10 1.00
  0.823600D+04  0.531000D-03
  0.123500D+04  0.410800D-02
  0.280800D+03  0.210870D-01
  0.792700D+02  0.818530D-01
  0.255900D+02  0.234817D+00
  0.899700D+01  0.434401D+00
  0.331900D+01  0.346129D+00
  0.905900D+00  0.393780D-01
  0.364300D+00 -0.898300D-02
  0.128500D+00  0.238500D-02
   s    10 1.00
  0.823600D+04 -0.113000D-03
  0.123500D+04 -0.878000D-03
  0.280800D+03 -0.454000D-02
  0.792700D+02 -0.181330D-01
  0.255900D+02 -0.557600D-01
  0.899700D+01 -0.126895D+00
  0.331900D+01 -0.170352D+00
  0.905900D+00  0.140382D+00
  0.364300D+00  0.598684D+00
  0.128500D+00  0.395389D+00
   s     1 1.00
  0.905900D+00  0.100000D+01
   s     1 1.00
  0.364300D+00  0.100000D+01
   p     5 1.00
  0.187100D+02  0.140310D-01
  0.413300D+01  0.868660D-01
  0.120000D+01  0.290216D+00
  0.382700D+00  0.501008D+00
  0.120900D+00  0.343406D+00
   p     1 1.00
  0.382700D+00  0.100000D+01
   p     1 1.00
  0.120900D+00  0.100000D+01
   d     1 1.00
  0.109700D+01  0.100000D+01
   d     1 1.00
  0.318000D+00  0.100000D+01
   f     1 1.00
  0.761000D+00  0.100000D+01
  
  5  0
   s    10 1.00
  0.823600D+04  0.531000D-03
  0.123500D+04  0.410800D-02
  0.280800D+03  0.210870D-01
  0.792700D+02  0.818530D-01
  0.255900D+02  0.234817D+00
  0.899700D+01  0.434401D+00
  0.331900D+01  0.346129D+00
  0.905900D+00  0.393780D-01
  0.364300D+00 -0.898300D-02
  0.128500D+00  0.238500D-02
   s    10 1.00
  0.823600D+04 -0.113000D-03
  0.123500D+04 -0.878000D-03
  0.280800D+03 -0.454000D-02
  0.792700D+02 -0.181330D-01
  0.255900D+02 -0.557600D-01
  0.899700D+01 -0.126895D+00
  0.331900D+01 -0.170352D+00
  0.905900D+00  0.140382D+00
  0.364300D+00  0.598684D+00
  0.128500D+00  0.395389D+00
   s     1 1.00
  0.905900D+00  0.100000D+01
   s     1 1.00
  0.364300D+00  0.100000D+01
   p     5 1.00
  0.187100D+02  0.140310D-01
  0.413300D+01  0.868660D-01
  0.120000D+01  0.290216D+00
  0.382700D+00  0.501008D+00
  0.120900D+00  0.343406D+00
   p     1 1.00
  0.382700D+00  0.100000D+01
   p     1 1.00
  0.120900D+00  0.100000D+01
   d     1 1.00
  0.109700D+01  0.100000D+01
   d     1 1.00
  0.318000D+00  0.100000D+01
   f     1 1.00
  0.761000D+00  0.100000D+01
  
  6  0
   s    10 1.00
  0.823600D+04  0.531000D-03
  0.123500D+04  0.410800D-02
  0.280800D+03  0.210870D-01
  0.792700D+02  0.818530D-01
  0.255900D+02  0.234817D+00
  0.899700D+01  0.434401D+00
  0.331900D+01  0.346129D+00
  0.905900D+00  0.393780D-01
  0.364300D+00 -0.898300D-02
  0.128500D+00  0.238500D-02
   s    10 1.00
  0.823600D+04 -0.113000D-03
  0.123500D+04 -0.878000D-03
  0.280800D+03 -0.454000D-02
  0.792700D+02 -0.181330D-01
  0.255900D+02 -0.557600D-01
  0.899700D+01 -0.126895D+00
  0.331900D+01 -0.170352D+00
  0.905900D+00  0.140382D+00
  0.364300D+00  0.598684D+00
  0.128500D+00  0.395389D+00
   s     1 1.00
  0.905900D+00  0.100000D+01
   s     1 1.00
  0.364300D+00  0.100000D+01
   p     5 1.00
  0.187100D+02  0.140310D-01
  0.413300D+01  0.868660D-01
  0.120000D+01  0.290216D+00
  0.382700D+00  0.501008D+00
  0.120900D+00  0.343406D+00
   p     1 1.00
  0.382700D+00  0.100000D+01
   p     1 1.00
  0.120900D+00  0.100000D+01
   d     1 1.00
  0.109700D+01  0.100000D+01
   d     1 1.00
  0.318000D+00  0.100000D+01
   f     1 1.00
  0.761000D+00  0.100000D+01
  
  7  0
   s    10 1.00
  0.823600D+04  0.531000D-03
  0.123500D+04  0.410800D-02
  0.280800D+03  0.210870D-01
  0.792700D+02  0.818530D-01
  0.255900D+02  0.234817D+00
  0.899700D+01  0.434401D+00
  0.331900D+01  0.346129D+00
  0.905900D+00  0.393780D-01
  0.364300D+00 -0.898300D-02
  0.128500D+00  0.238500D-02
   s    10 1.00
  0.823600D+04 -0.113000D-03
  0.123500D+04 -0.878000D-03
  0.280800D+03 -0.454000D-02
  0.792700D+02 -0.181330D-01
  0.255900D+02 -0.557600D-01
  0.899700D+01 -0.126895D+00
  0.331900D+01 -0.170352D+00
  0.905900D+00  0.140382D+00
  0.364300D+00  0.598684D+00
  0.128500D+00  0.395389D+00
   s     1 1.00
  0.905900D+00  0.100000D+01
   s     1 1.00
  0.364300D+00  0.100000D+01
   p     5 1.00
  0.187100D+02  0.140310D-01
  0.413300D+01  0.868660D-01
  0.120000D+01  0.290216D+00
  0.382700D+00  0.501008D+00
  0.120900D+00  0.343406D+00
   p     1 1.00
  0.382700D+00  0.100000D+01
   p     1 1.00
  0.120900D+00  0.100000D+01
   d     1 1.00
  0.109700D+01  0.100000D+01
   d     1 1.00
  0.318000D+00  0.100000D+01
   f     1 1.00
  0.761000D+00  0.100000D+01
  
  8  0
   s     4 1.00
  0.130100D+02  0.196850D-01
  0.196200D+01  0.137977D+00
  0.444600D+00  0.478148D+00
  0.122000D+00  0.501240D+00
   s     1 1.00
  0.122000D+00  0.100000D+01
   p     1 1.00
  0.727000D+00  0.100000D+01
  
  9  0
   s     4 1.00
  0.130100D+02  0.196850D-01
  0.196200D+01  0.137977D+00
  0.444600D+00  0.478148D+00
  0.122000D+00  0.501240D+00
   s     1 1.00
  0.122000D+00  0.100000D+01
   p     1 1.00
  0.727000D+00  0.100000D+01
  
 10  0
   s     4 1.00
  0.130100D+02  0.196850D-01
  0.196200D+01  0.137977D+00
  0.444600D+00  0.478148D+00
  0.122000D+00  0.501240D+00
   s     1 1.00
  0.122000D+00  0.100000D+01
   p     1 1.00
  0.727000D+00  0.100000D+01
  
 11  0
   s     4 1.00
  0.130100D+02  0.196850D-01
  0.196200D+01  0.137977D+00
  0.444600D+00  0.478148D+00
  0.122000D+00  0.501240D+00
   s     1 1.00
  0.122000D+00  0.100000D+01
   p     1 1.00
  0.727000D+00  0.100000D+01
  
 12  0
   s     4 1.00
  0.130100D+02  0.196850D-01
  0.196200D+01  0.137977D+00
  0.444600D+00  0.478148D+00
  0.122000D+00  0.501240D+00
   s     1 1.00
  0.122000D+00  0.100000D+01
   p     1 1.00
  0.727000D+00  0.100000D+01
  
 13  0
   s     4 1.00
  0.130100D+02  0.196850D-01
  0.196200D+01  0.137977D+00
  0.444600D+00  0.478148D+00
  0.122000D+00  0.501240D+00
   s     1 1.00
  0.122000D+00  0.100000D+01
   p     1 1.00
  0.727000D+00  0.100000D+01
  
 14  0
   s     4 1.00
  0.130100D+02  0.196850D-01
  0.196200D+01  0.137977D+00
  0.444600D+00  0.478148D+00
  0.122000D+00  0.501240D+00
   s     1 1.00
  0.122000D+00  0.100000D+01
   p     1 1.00
  0.727000D+00  0.100000D+01
  
[MO]
 Sym= __1_a__
 Ene=  0.000000000000000E+000
 Spin= Alpha
 Occup=    2.00000000000000     
                     1  6.861370729668140E-005
                     2  0.997464213620799     
                     3  1.363261970074050E-002
                     4  2.652414437615080E-003
                     5 -6.130121230857850E-004
                     6 -9.218086969660620E-012
                     7 -3.202768062193280E-004
                     8  3.852232444904320E-003
                     9 -5.904150156037210E-012
                    10 -2.316057417718720E-004
                    11 -3.438295464206490E-004
                    12  1.026099636355010E-011
                    13 -1.437410799879710E-004
                    14 -1.520541586994780E-004
                    15  2.296393515094041E-004
                    16 -4.388842676019960E-012
                    17  2.223066952271050E-004
                    18 -5.544956949706080E-004
                    19 -8.598720926732570E-013
                    20  1.591232186563670E-004
                    21  6.327425049228970E-012
                    22 -1.201403671396450E-005
                    23  4.046978328094100E-004
                    24 -3.169995962566160E-012
                    25 -4.245312242925263E-004
                    26  1.398479820998332E-012
                    27 -3.449112334059154E-005
                    28  4.441930038212060E-004
                    29 -2.065833560250120E-012
                    30 -1.459942363923835E-012
                    31  7.621723613678392E-005
                    32 -3.903986959406980E-004
                    33  3.069753659653070E-003
                    34  1.876786837081400E-004
                    35 -3.205493616500790E-004
                    36 -5.091329800379530E-012
                    37  1.490668302122120E-004
                    38 -7.963606329984701E-003
                    39  4.828892528559410E-012
                    40 -5.859260064129200E-005
                    41  3.402540917270930E-004
                    42  1.123949512148120E-011
                    43  1.418366914558060E-004
                    44  3.415637475581200E-003
                    45  3.679250434204957E-004
                    46  2.369754268433790E-012
                    47  1.497133903344110E-005
                    48  1.530272844723100E-004
                    49 -5.095369002631320E-012
                    50  5.090118565441288E-006
                    51  6.159440961379190E-012
                    52 -2.013091147033960E-004
                    53 -4.783699872393020E-004
                    54  1.566239020061090E-011
                    55 -1.629138258447412E-004
                    56 -2.527743777971989E-012
                    57  8.982592693041482E-006
                    58  1.419098787994464E-004
                    59  2.885870154655520E-012
                    60 -2.872639128756283E-013
                    61 -2.995863616555846E-006
                    62 -1.937068364159120E-004
                    63 -1.860400428993370E-003
                    64  6.051867854746840E-005
                    65  4.838962014671030E-004
                    66  2.327189611287350E-012
                    67 -9.853350411265179E-004
                    68  1.294127311519120E-003
                    69  2.901742249361560E-013
                    70 -7.911874468251921E-005
                    71  5.666261272094500E-004
                    72 -1.083918072304200E-011
                    73 -1.418019965272220E-004
                    74 -5.884455529909380E-005
                    75  1.011643809909246E-004
                    76  5.003058466578040E-012
                    77 -1.676226400258870E-005
                    78  4.153700273583520E-005
                    79  2.828908746404610E-012
                    80 -5.639100508216548E-005
                    81 -1.346248210879090E-011
                    82  2.690311668827740E-004
                    83 -4.075294999016560E-005
                    84 -4.345938616679680E-012
                    85 -9.965269365116172E-005
                    86  2.061095027942611E-012
                    87 -3.806494111101726E-005
                    88  2.484494304795520E-005
                    89 -4.398983034199710E-012
                    90  8.001605420935738E-013
                    91  7.999995914377639E-006
                    92 -1.877962539771960E-004
                    93 -1.709271883635980E-003
                    94  3.178793069395390E-005
                    95  6.753334772392110E-004
                    96  1.758182717459310E-011
                    97  8.719560902515550E-004
                    98  1.151674763497840E-003
                    99 -2.038339203060090E-011
                   100 -8.842375349202101E-005
                   101  5.410014943210731E-004
                   102 -1.163644762963490E-011
                   103  2.279405451494690E-004
                   104  2.511977479558670E-004
                   105  1.088200927504199E-004
                   106 -1.808406381939320E-013
                   107  3.173287091561610E-005
                   108  3.497326797228780E-005
                   109  3.291434193780520E-012
                   110 -1.824649251212538E-004
                   111  4.816807903903150E-012
                   112 -2.881351901269810E-004
                   113 -1.072175460651462E-004
                   114  1.242258545288590E-011
                   115 -1.122266868438461E-004
                   116  2.027935025385739E-012
                   117  4.255063045050906E-005
                   118  2.854406522744640E-005
                   119 -6.239996752648500E-012
                   120  3.944505840981811E-013
                   121 -1.034257664716945E-005
                   122 -1.396096472734820E-004
                   123  1.320358319100020E-004
                   124  1.145372659773520E-004
                   125  7.391731446327790E-005
                   126 -1.227631842006200E-011
                   127  6.057797185041970E-005
                   128 -9.424325512193730E-004
                   129  1.743353428674230E-011
                   130 -2.587785561265680E-005
                   131  3.347839025971430E-004
                   132  1.573628076021400E-011
                   133 -1.640555643085900E-004
                   134  4.099778720780310E-004
                   135 -1.674319596998227E-005
                   136 -1.489509401587050E-012
                   137  1.927903650599490E-006
                   138  3.551973465543260E-006
                   139 -2.704238303410890E-012
                   140 -1.416312233225215E-004
                   141 -2.713166220383480E-012
                   142  1.759208249623200E-004
                   143  1.646743993863274E-005
                   144  1.093419349352910E-011
                   145 -3.607972359035557E-005
                   146  3.338239008794069E-012
                   147  4.546721366780748E-006
                   148 -7.657501667788401E-006
                   149  1.346679434324890E-012
                   150  2.900215696121587E-012
                   151 -1.699888529231107E-006
                   152 -1.429086512489290E-004
                   153  8.381046891039880E-005
                   154  1.076571258760020E-004
                   155  1.698774962228640E-004
                   156 -1.724970466052210E-011
                   157 -5.142850387206400E-005
                   158 -8.937465976617400E-004
                   159  1.897391586242290E-011
                   160  3.091605934704840E-005
                   161  3.061745768615960E-004
                   162  1.138624026134870E-011
                   163  6.068692901193940E-005
                   164  6.971507557902370E-004
                   165 -1.853370467497818E-005
                   166  2.806996313651820E-012
                   167  1.350140652795680E-006
                   168  2.593357418615600E-006
                   169  7.989577383959421E-014
                   170 -1.546231862342838E-004
                   171 -6.434364234198310E-013
                   172 -2.125692927218770E-004
                   173  1.623077073669110E-005
                   174 -8.420713297191281E-012
                   175 -4.200482860972428E-005
                   176 -6.669467067300408E-014
                   177 -1.712039117536361E-008
                   178 -9.653956752277761E-006
                   179 -1.119212563814800E-012
                   180  6.251764913198431E-013
                   181  3.320309075524097E-006
                   182 -1.188917220671280E-004
                   183 -3.146885981439320E-004
                   184  2.708326032359600E-005
                   185  1.464349119152590E-004
                   186  2.129450676256700E-011
                   187 -4.188758453002220E-006
                   188 -3.367546668794970E-005
                   189 -2.116590778387000E-011
                   190 -1.270107327714120E-005
                   191 -1.515200225779110E-005
                   192 -1.490138582954720E-011
                   193 -1.641055546880090E-004
                   194  1.755610187483450E-004
                   195  2.249013117122194E-005
                   196 -4.082458441071790E-012
                   197 -8.552343668982380E-009
                   198  1.050976672599710E-005
                   199 -1.105199910041310E-012
                   200  6.264015494729907E-005
                   201  1.145085418181910E-011
                   202  1.212469212361860E-005
                   203  4.168541659290140E-005
                   204  1.911881008700940E-012
                   205 -1.451833358841488E-005
                   206  2.597330702528665E-013
                   207 -1.300819824521705E-006
                   208  8.110045306952419E-006
                   209  1.429266070805670E-012
                   210 -1.175919732984447E-012
                   211 -1.601966703228863E-008
                   212  6.169035307652960E-003
                   213 -3.733976888276380E-003
                   214  2.558633310000810E-013
                   215  2.356055157141460E-004
                   216  2.294152148675790E-004
                   217  5.599043735174030E-003
                   218 -3.205697303161810E-003
                   219  1.346584292783860E-012
                   220 -3.679584541353960E-004
                   221  3.270151600492610E-004
                   222 -8.116746372855790E-004
                   223  1.919390861109490E-004
                   224 -2.651226452252650E-012
                   225 -3.370136226537500E-005
                   226 -5.112227934584960E-005
                   227 -8.399228440536250E-004
                   228  2.001556371130100E-004
                   229 -5.094054124223510E-012
                   230  2.248178832940100E-005
                   231 -7.266785532762381E-005
                   232 -2.838882723019500E-004
                   233 -2.988238290004800E-004
                   234  1.639612838741930E-012
                   235 -8.298432123400309E-006
                   236  9.206147870267961E-006
                   237 -2.395433834185240E-004
                   238 -3.363486171564730E-004
                   239  1.485641658884480E-012
                   240  7.275859391947770E-006
                   241  9.926793028728200E-006
                   242  8.797869211330900E-005
                   243 -1.662675739244290E-004
                   244 -2.159077550529760E-012
                   245  1.077235073380600E-006
                   246  9.867849598983770E-006
 Sym= __2_a__
 Ene=  0.000000000000000E+000
 Spin= Alpha
 Occup=    2.00000000000000     
                     1 -3.701497308779670E-005
                     2 -1.981939675085400E-004
                     3  1.726792954698720E-003
                     4  9.997068195319470E-005
                     5  1.493945326180050E-003
                     6  1.023924915264340E-012
                     7  4.864490796483560E-005
                     8  2.965583716374010E-003
                     9 -3.524409490771420E-013
                    10  1.164523090834770E-005
                    11 -5.584134847376390E-005
                    12  2.983210454429400E-012
                    13  2.941100374709360E-006
                    14 -4.290679487865300E-004
                    15  3.059770315742194E-005
                    16  3.276573410376190E-012
                    17 -3.428917024566190E-006
                    18  6.325604215240719E-005
                    19 -6.041331616173130E-013
                    20 -3.924791498574634E-004
                    21 -1.609000345249270E-012
                    22 -4.638121246892910E-005
                    23 -3.958011558874200E-004
                    24  5.149348051326090E-014
                    25  1.717632419587198E-004
                    26  3.386698992771042E-012
                    27  1.685045081931462E-005
                    28 -9.694219707693000E-006
                    29 -1.518242871744720E-013
                    30  2.523710561813852E-012
                    31  3.565209811801546E-006
                    32   1.00105582789215     
                    33  9.200543906707220E-003
                    34  2.660494547144250E-003
                    35 -7.747739424749980E-003
                    36  1.585102317016690E-011
                    37 -3.490551132990850E-006
                    38 -3.965712363546890E-003
                    39 -7.091367511661130E-012
                    40  1.011816478124250E-005
                    41  1.030316625401720E-003
                    42  9.621764971594981E-012
                    43 -4.147952864281890E-005
                    44  4.574282651596030E-003
                    45  4.613284078723729E-004
                    46  5.171051003726900E-014
                    47  3.014905797929850E-006
                    48 -4.333797453696440E-004
                    49 -4.653256015245950E-012
                    50  5.644648328791528E-004
                    51  1.802406345058540E-012
                    52 -2.898769189839980E-005
                    53  9.512872629080840E-004
                    54 -1.577379985290620E-012
                    55  3.755298719164073E-004
                    56 -2.161735215146424E-012
                    57 -1.448692920168772E-006
                    58 -2.125543147713140E-004
                    59  1.018829096452700E-012
                    60  1.972505774092887E-012
                    61 -5.515968882864803E-007
                    62  7.235918563653290E-003
                    63 -2.052758375659120E-003
                    64 -2.788974032727660E-004
                    65  3.069329999643700E-003
                    66  9.341964819116891E-012
                    67  1.320466294104400E-004
                    68 -6.134390900292589E-005
                    69 -1.084928411817030E-011
                    70  5.914130140139159E-004
                    71  2.630634718927760E-005
                    72 -2.778838233275060E-012
                    73 -2.173023891699770E-003
                    74  1.008078888736270E-004
                    75 -1.712038932774934E-005
                    76 -7.816152768400240E-013
                    77  1.383346603588760E-005
                    78  2.683807333767220E-005
                    79  1.917243246280430E-012
                    80  7.801640436795791E-004
                    81  6.911240145635760E-012
                    82 -4.348293279372410E-004
                    83 -6.605972096205520E-006
                    84 -1.944014452041970E-012
                    85  7.273058429847983E-005
                    86  2.952001655409754E-012
                    87  4.853188042619028E-005
                    88 -1.253968694134600E-004
                    89 -3.303619230405400E-012
                    90  1.314525548982332E-013
                    91  5.038313790098208E-005
                    92  7.228859289845490E-003
                    93 -2.043665614072590E-003
                    94 -2.812167345098520E-004
                    95  3.083384377313990E-003
                    96 -2.431418617773790E-011
                    97 -1.308830109574240E-004
                    98 -6.452500327556689E-005
                    99  2.320157917671800E-011
                   100 -6.090424790815550E-004
                   101  3.493905705775430E-005
                   102 -5.115250160432280E-012
                   103  2.140383115737880E-003
                   104  3.869099734972580E-005
                   105 -1.738783828528643E-005
                   106 -2.021990564883210E-012
                   107 -1.337475476684860E-005
                   108  2.647583118818720E-005
                   109 -2.942714169923210E-012
                   110  7.698920191281986E-004
                   111  6.977954846541580E-012
                   112  4.324643675363280E-004
                   113 -1.175223939422200E-005
                   114  1.013605434444710E-011
                   115  7.189353324642415E-005
                   116  3.410810809406733E-012
                   117 -4.504056377230944E-005
                   118 -1.262750577094780E-004
                   119 -1.158163104399210E-013
                   120  2.009093940379409E-012
                   121 -5.024166825891015E-005
                   122 -2.431322797567990E-004
                   123 -7.928815365727070E-004
                   124  2.251290734934820E-004
                   125 -1.003556850169870E-004
                   126 -4.103316079180450E-012
                   127 -2.352984842746140E-005
                   128 -2.211365198515080E-004
                   129  4.091438047520910E-013
                   130  1.692188694374240E-006
                   131  5.419176921000930E-004
                   132 -6.854191474910390E-012
                   133  3.407213515256080E-004
                   134  8.013388288794090E-004
                   135 -1.451792705087647E-005
                   136  2.349664728379820E-012
                   137  5.113519066001370E-005
                   138  1.356946718588900E-005
                   139 -3.194732023569310E-012
                   140 -2.997034188313717E-004
                   141  3.480737024633920E-012
                   142 -2.223218986477820E-004
                   143 -1.446402194655114E-005
                   144 -2.571391694166250E-012
                   145  9.126637662055204E-009
                   146 -4.710754250814720E-012
                   147 -4.097951125731296E-005
                   148 -3.934824109981880E-005
                   149 -1.286571267088770E-012
                   150 -1.019227361995442E-012
                   151 -5.878399245305174E-006
                   152 -2.411179782325850E-004
                   153 -7.821378990173810E-004
                   154  2.273202902661860E-004
                   155 -1.139340262805800E-004
                   156  9.451746277951600E-012
                   157  2.200743404352730E-005
                   158 -2.227866631325610E-004
                   159 -8.959175967795939E-012
                   160  6.204668026921100E-006