[Molden Format]
[Atoms] AU
  N     1    7    -0.0761705400   -4.3310112700    0.0000000000        
  C     2    6     0.0345845400   -1.8329936800    0.0000000000        
  C     3    6    -2.3074634100   -0.4324493400    0.0000000000        
  C     4    6     2.3513304000   -0.3958665600    0.0000000000        
  C     5    6    -2.2846800000    2.1470382800    0.0000000000        
  C     6    6     2.2994937500    2.1819424700    0.0000000000        
  C     7    6    -0.0035991900    3.4849675500    0.0000000000        
  H     8    1    -2.5529032800   -5.7096667600    0.0000000000        
  H     9    1     1.6771990900   -5.1697587500    0.0000000000        
  H    10    1    -4.0348918300   -1.4810971700    0.0000000000        
  H    11    1     4.1135684700   -1.3983718000    0.0000000000        
  H    12    1    -4.0380021500    3.1682084900    0.0000000000        
  H    13    1     4.0380800500    3.2279140800    0.0000000000        
  H    14    1    -0.0171560400    5.5122433600    0.0000000000        
[5D]
[7F]
[GTO]
  1  0
   s    12 1.00
  0.114200D+05  0.172695D-04
  0.171200D+04  0.134411D-03
  0.389300D+03  0.694561D-03
  0.110000D+03  0.278531D-02
  0.355700D+02  0.863457D-02
  0.125400D+02  0.199805D-01
  0.464400D+01  0.262908D-01
  0.129300D+01 -0.243845D-01
  0.511800D+00 -0.924934D-01
  0.178700D+00 -0.339683D+00
  0.246240D-01  0.345111D+00
  0.112530D-01  0.752750D+00
   s    10 1.00
  0.114200D+05  0.523000D-03
  0.171200D+04  0.404500D-02
  0.389300D+03  0.207750D-01
  0.110000D+03  0.807269D-01
  0.355700D+02  0.233074D+00
  0.125400D+02  0.433501D+00
  0.464400D+01  0.347472D+00
  0.129300D+01  0.412620D-01
  0.511800D+00 -0.850799D-02
  0.178700D+00  0.238400D-02
   s    10 1.00
  0.114200D+05 -0.115000D-03
  0.171200D+04 -0.895000D-03
  0.389300D+03 -0.462400D-02
  0.110000D+03 -0.185280D-01
  0.355700D+02 -0.573390D-01
  0.125400D+02 -0.132076D+00
  0.464400D+01 -0.172510D+00
  0.129300D+01  0.151814D+00
  0.511800D+00  0.599944D+00
  0.178700D+00  0.387462D+00
   s     1 1.00
  0.129300D+01  0.100000D+01
   s     1 1.00
  0.178700D+00  0.100000D+01
   p     5 1.00
  0.266300D+02  0.146700D-01
  0.594800D+01  0.917640D-01
  0.174200D+01  0.298683D+00
  0.555000D+00  0.498487D+00
  0.172500D+00  0.337023D+00
   p     1 1.00
  0.174200D+01  0.100000D+01
   p     1 1.00
  0.555000D+00  0.100000D+01
   d     1 1.00
  0.165400D+01  0.100000D+01
   d     1 1.00
  0.469000D+00  0.100000D+01
   f     1 1.00
  0.109300D+01  0.100000D+01
  
  2  0
   s    10 1.00
  0.823600D+04  0.531000D-03
  0.123500D+04  0.410800D-02
  0.280800D+03  0.210870D-01
  0.792700D+02  0.818530D-01
  0.255900D+02  0.234817D+00
  0.899700D+01  0.434401D+00
  0.331900D+01  0.346129D+00
  0.905900D+00  0.393780D-01
  0.364300D+00 -0.898300D-02
  0.128500D+00  0.238500D-02
   s    10 1.00
  0.823600D+04 -0.113000D-03
  0.123500D+04 -0.878000D-03
  0.280800D+03 -0.454000D-02
  0.792700D+02 -0.181330D-01
  0.255900D+02 -0.557600D-01
  0.899700D+01 -0.126895D+00
  0.331900D+01 -0.170352D+00
  0.905900D+00  0.140382D+00
  0.364300D+00  0.598684D+00
  0.128500D+00  0.395389D+00
   s     1 1.00
  0.905900D+00  0.100000D+01
   s     1 1.00
  0.364300D+00  0.100000D+01
   p     5 1.00
  0.187100D+02  0.140310D-01
  0.413300D+01  0.868660D-01
  0.120000D+01  0.290216D+00
  0.382700D+00  0.501008D+00
  0.120900D+00  0.343406D+00
   p     1 1.00
  0.382700D+00  0.100000D+01
   p     1 1.00
  0.120900D+00  0.100000D+01
   d     1 1.00
  0.109700D+01  0.100000D+01
   d     1 1.00
  0.318000D+00  0.100000D+01
   f     1 1.00
  0.761000D+00  0.100000D+01
  
  3  0
   s    10 1.00
  0.823600D+04  0.531000D-03
  0.123500D+04  0.410800D-02
  0.280800D+03  0.210870D-01
  0.792700D+02  0.818530D-01
  0.255900D+02  0.234817D+00
  0.899700D+01  0.434401D+00
  0.331900D+01  0.346129D+00
  0.905900D+00  0.393780D-01
  0.364300D+00 -0.898300D-02
  0.128500D+00  0.238500D-02
   s    10 1.00
  0.823600D+04 -0.113000D-03
  0.123500D+04 -0.878000D-03
  0.280800D+03 -0.454000D-02
  0.792700D+02 -0.181330D-01
  0.255900D+02 -0.557600D-01
  0.899700D+01 -0.126895D+00
  0.331900D+01 -0.170352D+00
  0.905900D+00  0.140382D+00
  0.364300D+00  0.598684D+00
  0.128500D+00  0.395389D+00
   s     1 1.00
  0.905900D+00  0.100000D+01
   s     1 1.00
  0.364300D+00  0.100000D+01
   p     5 1.00
  0.187100D+02  0.140310D-01
  0.413300D+01  0.868660D-01
  0.120000D+01  0.290216D+00
  0.382700D+00  0.501008D+00
  0.120900D+00  0.343406D+00
   p     1 1.00
  0.382700D+00  0.100000D+01
   p     1 1.00
  0.120900D+00  0.100000D+01
   d     1 1.00
  0.109700D+01  0.100000D+01
   d     1 1.00
  0.318000D+00  0.100000D+01
   f     1 1.00
  0.761000D+00  0.100000D+01
  
  4  0
   s    10 1.00
  0.823600D+04  0.531000D-03
  0.123500D+04  0.410800D-02
  0.280800D+03  0.210870D-01
  0.792700D+02  0.818530D-01
  0.255900D+02  0.234817D+00
  0.899700D+01  0.434401D+00
  0.331900D+01  0.346129D+00
  0.905900D+00  0.393780D-01
  0.364300D+00 -0.898300D-02
  0.128500D+00  0.238500D-02
   s    10 1.00
  0.823600D+04 -0.113000D-03
  0.123500D+04 -0.878000D-03
  0.280800D+03 -0.454000D-02
  0.792700D+02 -0.181330D-01
  0.255900D+02 -0.557600D-01
  0.899700D+01 -0.126895D+00
  0.331900D+01 -0.170352D+00
  0.905900D+00  0.140382D+00
  0.364300D+00  0.598684D+00
  0.128500D+00  0.395389D+00
   s     1 1.00
  0.905900D+00  0.100000D+01
   s     1 1.00
  0.364300D+00  0.100000D+01
   p     5 1.00
  0.187100D+02  0.140310D-01
  0.413300D+01  0.868660D-01
  0.120000D+01  0.290216D+00
  0.382700D+00  0.501008D+00
  0.120900D+00  0.343406D+00
   p     1 1.00
  0.382700D+00  0.100000D+01
   p     1 1.00
  0.120900D+00  0.100000D+01
   d     1 1.00
  0.109700D+01  0.100000D+01
   d     1 1.00
  0.318000D+00  0.100000D+01
   f     1 1.00
  0.761000D+00  0.100000D+01
  
  5  0
   s    10 1.00
  0.823600D+04  0.531000D-03
  0.123500D+04  0.410800D-02
  0.280800D+03  0.210870D-01
  0.792700D+02  0.818530D-01
  0.255900D+02  0.234817D+00
  0.899700D+01  0.434401D+00
  0.331900D+01  0.346129D+00
  0.905900D+00  0.393780D-01
  0.364300D+00 -0.898300D-02
  0.128500D+00  0.238500D-02
   s    10 1.00
  0.823600D+04 -0.113000D-03
  0.123500D+04 -0.878000D-03
  0.280800D+03 -0.454000D-02
  0.792700D+02 -0.181330D-01
  0.255900D+02 -0.557600D-01
  0.899700D+01 -0.126895D+00
  0.331900D+01 -0.170352D+00
  0.905900D+00  0.140382D+00
  0.364300D+00  0.598684D+00
  0.128500D+00  0.395389D+00
   s     1 1.00
  0.905900D+00  0.100000D+01
   s     1 1.00
  0.364300D+00  0.100000D+01
   p     5 1.00
  0.187100D+02  0.140310D-01
  0.413300D+01  0.868660D-01
  0.120000D+01  0.290216D+00
  0.382700D+00  0.501008D+00
  0.120900D+00  0.343406D+00
   p     1 1.00
  0.382700D+00  0.100000D+01
   p     1 1.00
  0.120900D+00  0.100000D+01
   d     1 1.00
  0.109700D+01  0.100000D+01
   d     1 1.00
  0.318000D+00  0.100000D+01
   f     1 1.00
  0.761000D+00  0.100000D+01
  
  6  0
   s    10 1.00
  0.823600D+04  0.531000D-03
  0.123500D+04  0.410800D-02
  0.280800D+03  0.210870D-01
  0.792700D+02  0.818530D-01
  0.255900D+02  0.234817D+00
  0.899700D+01  0.434401D+00
  0.331900D+01  0.346129D+00
  0.905900D+00  0.393780D-01
  0.364300D+00 -0.898300D-02
  0.128500D+00  0.238500D-02
   s    10 1.00
  0.823600D+04 -0.113000D-03
  0.123500D+04 -0.878000D-03
  0.280800D+03 -0.454000D-02
  0.792700D+02 -0.181330D-01
  0.255900D+02 -0.557600D-01
  0.899700D+01 -0.126895D+00
  0.331900D+01 -0.170352D+00
  0.905900D+00  0.140382D+00
  0.364300D+00  0.598684D+00
  0.128500D+00  0.395389D+00
   s     1 1.00
  0.905900D+00  0.100000D+01
   s     1 1.00
  0.364300D+00  0.100000D+01
   p     5 1.00
  0.187100D+02  0.140310D-01
  0.413300D+01  0.868660D-01
  0.120000D+01  0.290216D+00
  0.382700D+00  0.501008D+00
  0.120900D+00  0.343406D+00
   p     1 1.00
  0.382700D+00  0.100000D+01
   p     1 1.00
  0.120900D+00  0.100000D+01
   d     1 1.00
  0.109700D+01  0.100000D+01
   d     1 1.00
  0.318000D+00  0.100000D+01
   f     1 1.00
  0.761000D+00  0.100000D+01
  
  7  0
   s    10 1.00
  0.823600D+04  0.531000D-03
  0.123500D+04  0.410800D-02
  0.280800D+03  0.210870D-01
  0.792700D+02  0.818530D-01
  0.255900D+02  0.234817D+00
  0.899700D+01  0.434401D+00
  0.331900D+01  0.346129D+00
  0.905900D+00  0.393780D-01
  0.364300D+00 -0.898300D-02
  0.128500D+00  0.238500D-02
   s    10 1.00
  0.823600D+04 -0.113000D-03
  0.123500D+04 -0.878000D-03
  0.280800D+03 -0.454000D-02
  0.792700D+02 -0.181330D-01
  0.255900D+02 -0.557600D-01
  0.899700D+01 -0.126895D+00
  0.331900D+01 -0.170352D+00
  0.905900D+00  0.140382D+00
  0.364300D+00  0.598684D+00
  0.128500D+00  0.395389D+00
   s     1 1.00
  0.905900D+00  0.100000D+01
   s     1 1.00
  0.364300D+00  0.100000D+01
   p     5 1.00
  0.187100D+02  0.140310D-01
  0.413300D+01  0.868660D-01
  0.120000D+01  0.290216D+00
  0.382700D+00  0.501008D+00
  0.120900D+00  0.343406D+00
   p     1 1.00
  0.382700D+00  0.100000D+01
   p     1 1.00
  0.120900D+00  0.100000D+01
   d     1 1.00
  0.109700D+01  0.100000D+01
   d     1 1.00
  0.318000D+00  0.100000D+01
   f     1 1.00
  0.761000D+00  0.100000D+01
  
  8  0
   s     4 1.00
  0.130100D+02  0.196850D-01
  0.196200D+01  0.137977D+00
  0.444600D+00  0.478148D+00
  0.122000D+00  0.501240D+00
   s     1 1.00
  0.122000D+00  0.100000D+01
   p     1 1.00
  0.727000D+00  0.100000D+01
  
  9  0
   s     4 1.00
  0.130100D+02  0.196850D-01
  0.196200D+01  0.137977D+00
  0.444600D+00  0.478148D+00
  0.122000D+00  0.501240D+00
   s     1 1.00
  0.122000D+00  0.100000D+01
   p     1 1.00
  0.727000D+00  0.100000D+01
  
 10  0
   s     4 1.00
  0.130100D+02  0.196850D-01
  0.196200D+01  0.137977D+00
  0.444600D+00  0.478148D+00
  0.122000D+00  0.501240D+00
   s     1 1.00
  0.122000D+00  0.100000D+01
   p     1 1.00
  0.727000D+00  0.100000D+01
  
 11  0
   s     4 1.00
  0.130100D+02  0.196850D-01
  0.196200D+01  0.137977D+00
  0.444600D+00  0.478148D+00
  0.122000D+00  0.501240D+00
   s     1 1.00
  0.122000D+00  0.100000D+01
   p     1 1.00
  0.727000D+00  0.100000D+01
  
 12  0
   s     4 1.00
  0.130100D+02  0.196850D-01
  0.196200D+01  0.137977D+00
  0.444600D+00  0.478148D+00
  0.122000D+00  0.501240D+00
   s     1 1.00
  0.122000D+00  0.100000D+01
   p     1 1.00
  0.727000D+00  0.100000D+01
  
 13  0
   s     4 1.00
  0.130100D+02  0.196850D-01
  0.196200D+01  0.137977D+00
  0.444600D+00  0.478148D+00
  0.122000D+00  0.501240D+00
   s     1 1.00
  0.122000D+00  0.100000D+01
   p     1 1.00
  0.727000D+00  0.100000D+01
  
 14  0
   s     4 1.00
  0.130100D+02  0.196850D-01
  0.196200D+01  0.137977D+00
  0.444600D+00  0.478148D+00
  0.122000D+00  0.501240D+00
   s     1 1.00
  0.122000D+00  0.100000D+01
   p     1 1.00
  0.727000D+00  0.100000D+01
  
[MO]
 Sym= __1_A__
 Ene=   1.00000000000000     
 Spin= Alpha
 Occup=    1.00000000000000     
                     1  6.025777468297562E-005
                     2  0.998391430059641     
                     3  3.252820015415047E-003
                     4  1.721292706372516E-003
                     5  4.514730958688045E-003
                     6  3.407767342277383E-003
                     7  6.404840167539240E-003
                     8  0.000000000000000E+000
                     9 -5.877736590165589E-004
                    10 -5.437485788444645E-004
                    11  0.000000000000000E+000
                    12 -2.212678626898946E-003
                    13 -1.411512260990560E-003
                    14  0.000000000000000E+000
                    15 -1.456924192548333E-004
                    16  0.000000000000000E+000
                    17  0.000000000000000E+000
                    18 -1.862830346205832E-004
                    19 -5.175071461814392E-005
                    20  1.846895390899109E-004
                    21  0.000000000000000E+000
                    22  0.000000000000000E+000
                    23 -4.063015705410184E-004
                    24  4.289848443493571E-004
                    25  0.000000000000000E+000
                    26 -1.662493960100720E-005
                    27 -6.925420500839853E-005
                    28  0.000000000000000E+000
                    29  0.000000000000000E+000
                    30  2.919530419172421E-005
                    31 -1.468571572764360E-004
                    32 -3.680202338890978E-004
                    33  1.681363431437621E-003
                    34  3.056317585275418E-004
                    35 -4.566807559875540E-004
                    36 -2.850511615761585E-004
                    37 -5.365290226570890E-003
                    38  0.000000000000000E+000
                    39  3.928642314939197E-004
                    40  5.388894225606192E-004
                    41  0.000000000000000E+000
                    42 -1.903600626171260E-003
                    43  5.408597225841717E-003
                    44  0.000000000000000E+000
                    45 -1.498452591960244E-005
                    46  0.000000000000000E+000
                    47  0.000000000000000E+000
                    48 -2.412103127286758E-004
                    49 -1.596220734414278E-005
                    50 -2.845922510545290E-004
                    51  0.000000000000000E+000
                    52  0.000000000000000E+000
                    53  1.063856322054207E-004
                    54  6.498429273920036E-004
                    55  0.000000000000000E+000
                    56 -1.347765199851898E-005
                    57 -5.241210048489876E-005
                    58  0.000000000000000E+000
                    59  0.000000000000000E+000
                    60  4.889259583513161E-005
                    61 -1.311663071734740E-004
                    62 -4.360203315529024E-004
                    63 -2.113034715799063E-003
                    64 -7.596166334680029E-005
                    65  1.833581010832657E-003
                    66 -7.028437313176460E-004
                    67  5.329051636634653E-004
                    68  0.000000000000000E+000
                    69  3.245121049912745E-004
                    70  8.485980874249015E-004
                    71  0.000000000000000E+000
                    72 -1.847036841860476E-003
                    73  8.264597080043821E-004
                    74  0.000000000000000E+000
                    75 -3.665824654481848E-005
                    76  0.000000000000000E+000
                    77  0.000000000000000E+000
                    78 -7.551933777071230E-005
                    79 -2.303730901552403E-005
                    80 -1.176465619034480E-004
                    81  0.000000000000000E+000
                    82  0.000000000000000E+000
                    83 -3.418624914472128E-006
                    84  1.102848033021927E-004
                    85  0.000000000000000E+000
                    86  1.277494783966322E-005
                    87 -5.022228152195527E-005
                    88  0.000000000000000E+000
                    89  0.000000000000000E+000
                    90 -3.071355660981509E-005
                    91 -1.435752633275363E-004
                    92 -1.809390830783815E-004
                    93 -1.300305525026943E-003
                    94  1.980314432998862E-004
                    95 -1.111443790743436E-004
                    96  6.422997258469520E-004
                    97  7.800753095349946E-004
                    98  0.000000000000000E+000
                    99  3.563166934348173E-004
                   100  3.869157782072950E-004
                   101  0.000000000000000E+000
                   102  4.516892023964804E-004
                   103 -1.505552647891809E-003
                   104  0.000000000000000E+000
                   105 -7.221746363985978E-007
                   106  0.000000000000000E+000
                   107  0.000000000000000E+000
                   108 -8.611550639472310E-005
                   109 -1.620452265239588E-005
                   110  8.902617926133200E-005
                   111  0.000000000000000E+000
                   112  0.000000000000000E+000
                   113 -1.112046285250702E-004
                   114 -6.226235945472611E-005
                   115  0.000000000000000E+000
                   116 -2.683816429549880E-005
                   117 -2.802406291308062E-005
                   118  0.000000000000000E+000
                   119  0.000000000000000E+000
                   120 -1.639339058194739E-005
                   121 -3.568310005141358E-005
                   122 -2.503782707406441E-004
                   123 -4.708829482748178E-004
                   124  1.717966040111608E-004
                   125  2.740117833400723E-004
                   126 -1.202518493159229E-005
                   127 -5.867681318470852E-004
                   128  0.000000000000000E+000
                   129  1.791511609429136E-004
                   130  6.387174592987075E-004
                   131  0.000000000000000E+000
                   132  5.361615183426374E-004
                   133  1.942672420053532E-003
                   134  0.000000000000000E+000
                   135  1.540376430891980E-005
                   136  0.000000000000000E+000
                   137  0.000000000000000E+000
                   138  3.870453135552008E-005
                   139  1.499274214536422E-006
                   140  1.726167859750311E-004
                   141  0.000000000000000E+000
                   142  0.000000000000000E+000
                   143  3.635380759696890E-004
                   144  2.273756545598822E-004
                   145  0.000000000000000E+000
                   146 -9.549170245347624E-006
                   147 -5.726097893931419E-005
                   148  0.000000000000000E+000
                   149  0.000000000000000E+000
                   150 -1.074691556112787E-005
                   151 -4.238948372415870E-005
                   152 -1.667804392070616E-004
                   153 -1.862272213705436E-004
                   154  6.055248399246712E-005
                   155  2.832319956770086E-004
                   156 -2.875205535928712E-005
                   157 -5.442738544369707E-004
                   158  0.000000000000000E+000
                   159  3.779928737980494E-005
                   160  6.888439081694319E-005
                   161  0.000000000000000E+000
                   162  7.690002176335921E-004
                   163 -2.250209845340615E-004
                   164  0.000000000000000E+000
                   165 -8.091460275261661E-007
                   166  0.000000000000000E+000
                   167  0.000000000000000E+000
                   168 -4.578822122450518E-006
                   169  4.630729559853036E-007
                   170  9.317475589970469E-005
                   171  0.000000000000000E+000
                   172  0.000000000000000E+000
                   173  2.977562472185996E-005
                   174 -3.632591232700155E-005
                   175  0.000000000000000E+000
                   176  7.995639681364178E-007
                   177 -1.179498192921613E-005
                   178  0.000000000000000E+000
                   179  0.000000000000000E+000
                   180 -1.123952481577679E-005
                   181 -2.029398706275743E-005
                   182 -1.658110110930744E-004
                   183 -4.789500800437165E-004
                   184  4.104042382922950E-005
                   185  2.404494662777966E-004
                   186 -4.308302078648449E-005
                   187 -4.783095634203357E-005
                   188  0.000000000000000E+000
                   189  2.337857847919539E-004
                   190  6.986723330601508E-005
                   191  0.000000000000000E+000
                   192  1.258655847316705E-003
                   193 -1.670580956679503E-004
                   194  0.000000000000000E+000
                   195  3.363256309156100E-007
                   196  0.000000000000000E+000
                   197  0.000000000000000E+000
                   198 -1.273062877714201E-005
                   199  2.536532758080468E-006
                   200 -2.467840813455114E-006
                   201  0.000000000000000E+000
                   202  0.000000000000000E+000
                   203 -8.055669312328908E-005
                   204 -1.799660545086682E-004
                   205  0.000000000000000E+000
                   206 -8.496073452126596E-006
                   207 -4.794749133234590E-006
                   208  0.000000000000000E+000
                   209  0.000000000000000E+000
                   210  5.352983410332876E-006
                   211 -8.551607061302731E-006
                   212  1.616148005945733E-004
                   213 -4.842765828482832E-005
                   214  1.882421481930642E-004
                   215  1.689480934678766E-004
                   216  0.000000000000000E+000
                   217  1.855878522263702E-003
                   218 -1.709299616113885E-003
                   219 -4.358016080363648E-004
                   220  2.361071231169942E-004
                   221  0.000000000000000E+000
                   222 -4.473012230339258E-004
                   223 -6.915219506130330E-004
                   224 -8.808781114411614E-006
                   225 -5.651875935234078E-005
                   226  0.000000000000000E+000
                   227 -3.436928052936844E-004
                   228 -4.083777563598342E-004
                   229 -1.302049548079206E-005
                   230 -2.791964060649018E-005
                   231  0.000000000000000E+000
                   232 -1.160483430462961E-004
                   233 -4.497525809395003E-004
                   234  2.193307367873345E-007
                   235  2.284962340186155E-006
                   236  0.000000000000000E+000
                   237 -1.708960027840613E-004
                   238 -4.348576553465836E-004
                   239  3.387567413195278E-006
                   240 -6.957061262558573E-007
                   241  0.000000000000000E+000
                   242  1.074536671509425E-005
                   243 -1.588972530938164E-005
                   244  3.554966359390757E-007
                   245  2.518047306395627E-005
                   246  0.000000000000000E+000
 Sym= __2_A__
 Ene=   2.00000000000000     
 Spin= Alpha
 Occup=    1.00000000000000     
                     1 -4.986739426435377E-005
                     2 -3.236740787928957E-004
                     3  2.569397428742541E-003
                     4  1.485525148512099E-004
                     5  1.430097050229256E-003
                     6 -3.133084971383354E-004
                     7  3.144766258238840E-003
                     8  0.000000000000000E+000
                     9 -1.989596736906641E-005
                    10 -1.017572668157136E-004
                    11  0.000000000000000E+000
                    12  1.165953031581710E-005
                    13 -4.803583830711429E-004
                    14  0.000000000000000E+000
                    15  4.050934045040184E-005
                    16  0.000000000000000E+000
                    17  0.000000000000000E+000
                    18 -5.197033086062768E-005
                    19  1.645353369722783E-005
                    20 -1.341279231308346E-004
                    21  0.000000000000000E+000
                    22  0.000000000000000E+000
                    23  2.080782471577650E-004
                    24 -1.201895525617493E-004
                    25  0.000000000000000E+000
                    26 -1.608536400269946E-005
                    27  9.454134376687731E-005
                    28  0.000000000000000E+000
                    29  0.000000000000000E+000
                    30 -5.699381849349495E-005
                    31  1.308810073121006E-004
                    32   1.00100107772194     
                    33  9.346084140954817E-003
                    34  2.705873595818234E-003
                    35 -7.979953205375983E-003
                    36 -1.572228672845214E-005
                    37 -3.495062530130852E-003
                    38  0.000000000000000E+000
                    39 -1.937042367674439E-004
                    40  1.997145834129267E-004
                    41  0.000000000000000E+000
                    42 -1.062746495105281E-004
                    43  4.282372700460277E-003
                    44  0.000000000000000E+000
                    45 -5.680818776375639E-004
                    46  0.000000000000000E+000
                    47  0.000000000000000E+000
                    48 -2.483922286685902E-004
                    49  4.623447106085092E-005
                    50  5.123138247702135E-004
                    51  0.000000000000000E+000
                    52  0.000000000000000E+000
                    53 -7.241090238104820E-004
                    54 -3.503811483000451E-004
                    55  0.000000000000000E+000
                    56  1.266410886820655E-005
                    57  1.075363391871691E-004
                    58  0.000000000000000E+000
                    59  0.000000000000000E+000
                    60 -3.579178018341844E-005
                    61  4.086623700093795E-004
                    62  8.381684296408695E-003
                    63 -2.085308072772151E-003
                    64 -2.369324790560213E-004
                    65  2.724104656525518E-003
                    66 -4.920330018985493E-007
                    67  5.771118467205804E-005
                    68  0.000000000000000E+000
                    69  5.582924589604493E-004
                    70  1.205371931661826E-004
                    71  0.000000000000000E+000
                    72 -2.159202738325310E-003
                    73  2.596711283709781E-004
                    74  0.000000000000000E+000
                    75  3.318365684292059E-005
                    76  0.000000000000000E+000
                    77  0.000000000000000E+000
                    78 -4.724557695080470E-006
                    79  3.756553072375879E-007
                    80 -4.041114401223078E-004
                    81  0.000000000000000E+000
                    82  0.000000000000000E+000
                    83 -6.151983054709188E-004
                    84 -2.562084436614937E-004
                    85  0.000000000000000E+000
                    86  2.676800176517282E-005
                    87 -5.717506479612853E-005
                    88  0.000000000000000E+000
                    89  0.000000000000000E+000
                    90  4.662749903814863E-005
                    91  1.532567282054537E-004
                    92  9.835039968195475E-003
                    93 -2.101020919643454E-003
                    94 -3.153440668898007E-004
                    95  3.207110313102945E-003
                    96  6.201785556936649E-005
                    97  2.947125532311342E-005
                    98  0.000000000000000E+000
                    99 -9.351421852097797E-004
                   100  2.165539852298130E-005
                   101  0.000000000000000E+000
                   102  1.852034038022848E-003
                   103  3.143689743173820E-005
                   104  0.000000000000000E+000
                   105  2.113193310038498E-005
                   106  0.000000000000000E+000
                   107  0.000000000000000E+000
                   108 -9.006998306554728E-007
                   109  1.245890679440501E-005
                   110 -4.221244682207935E-004
                   111  0.000000000000000E+000
                   112  0.000000000000000E+000
                   113 -3.972749128788356E-004
                   114  2.787225640188274E-004
                   115  0.000000000000000E+000
                   116 -2.539725534793730E-005
                   117 -6.856151576589554E-005
                   118  0.000000000000000E+000
                   119  0.000000000000000E+000
                   120 -1.260398946376746E-005
                   121  1.369405734449715E-004
                   122 -2.053681664748686E-004
                   123 -7.166616541630720E-004
                   124  2.230683258509276E-004
                   125 -6.837624398270757E-005
                   126  7.335402944889229E-006
                   127 -3.309370966119581E-004
                   128  0.000000000000000E+000
                   129 -8.944689216264768E-005
                   130  5.699585598560289E-004
                   131  0.000000000000000E+000
                   132  3.634952217607251E-004
                   133  9.169722310518830E-004
                   134  0.000000000000000E+000
                   135  1.601520123851231E-005
                   136  0.000000000000000E+000
                   137  0.000000000000000E+000
                   138  2.493081121810426E-006
                   139  4.455367504562670E-005
                   140  1.338192153261018E-004
                   141  0.000000000000000E+000
                   142  0.000000000000000E+000
                   143  2.411082671572548E-004
                   144 -1.086651875763504E-004
                   145  0.000000000000000E+000
                   146  1.040786965740316E-005
                   147 -3.737264095254603E-005
                   148  0.000000000000000E+000
                   149  0.000000000000000E+000
                   150 -4.860107910472887E-005
                   151  3.779844338855023E-005
                   152 -1.393022398879308E-004
                   153 -7.018385049867009E-004
                   154  2.313178756838855E-004
                   155 -2.999935217188150E-005
                   156 -2.721091751031549E-005
                   157 -3.309687184085944E-004
                   158  0.000000000000000E+000
                   159  1.300974941586883E-004
                   160  5.378652577829833E-004