[Molden Format]
[Atoms] AU
  N     1    7    -0.0761705400   -4.3310112700    0.0000000000        
  C     2    6     0.0345845400   -1.8329936800    0.0000000000        
  C     3    6    -2.3074634100   -0.4324493400    0.0000000000        
  C     4    6     2.3513304000   -0.3958665600    0.0000000000        
  C     5    6    -2.2846800000    2.1470382800    0.0000000000        
  C     6    6     2.2994937500    2.1819424700    0.0000000000        
  C     7    6    -0.0035991900    3.4849675500    0.0000000000        
  H     8    1    -2.5529032800   -5.7096667600    0.0000000000        
  H     9    1     1.6771990900   -5.1697587500    0.0000000000        
  H    10    1    -4.0348918300   -1.4810971700    0.0000000000        
  H    11    1     4.1135684700   -1.3983718000    0.0000000000        
  H    12    1    -4.0380021500    3.1682084900    0.0000000000        
  H    13    1     4.0380800500    3.2279140800    0.0000000000        
  H    14    1    -0.0171560400    5.5122433600    0.0000000000        
[5D]
[7F]
[GTO]
  1  0
   s    12 1.00
  0.114200D+05  0.172695D-04
  0.171200D+04  0.134411D-03
  0.389300D+03  0.694561D-03
  0.110000D+03  0.278531D-02
  0.355700D+02  0.863457D-02
  0.125400D+02  0.199805D-01
  0.464400D+01  0.262908D-01
  0.129300D+01 -0.243845D-01
  0.511800D+00 -0.924934D-01
  0.178700D+00 -0.339683D+00
  0.246240D-01  0.345111D+00
  0.112530D-01  0.752750D+00
   s    10 1.00
  0.114200D+05  0.523000D-03
  0.171200D+04  0.404500D-02
  0.389300D+03  0.207750D-01
  0.110000D+03  0.807269D-01
  0.355700D+02  0.233074D+00
  0.125400D+02  0.433501D+00
  0.464400D+01  0.347472D+00
  0.129300D+01  0.412620D-01
  0.511800D+00 -0.850799D-02
  0.178700D+00  0.238400D-02
   s    10 1.00
  0.114200D+05 -0.115000D-03
  0.171200D+04 -0.895000D-03
  0.389300D+03 -0.462400D-02
  0.110000D+03 -0.185280D-01
  0.355700D+02 -0.573390D-01
  0.125400D+02 -0.132076D+00
  0.464400D+01 -0.172510D+00
  0.129300D+01  0.151814D+00
  0.511800D+00  0.599944D+00
  0.178700D+00  0.387462D+00
   s     1 1.00
  0.129300D+01  0.100000D+01
   s     1 1.00
  0.178700D+00  0.100000D+01
   p     5 1.00
  0.266300D+02  0.146700D-01
  0.594800D+01  0.917640D-01
  0.174200D+01  0.298683D+00
  0.555000D+00  0.498487D+00
  0.172500D+00  0.337023D+00
   p     1 1.00
  0.174200D+01  0.100000D+01
   p     1 1.00
  0.555000D+00  0.100000D+01
   d     1 1.00
  0.165400D+01  0.100000D+01
   d     1 1.00
  0.469000D+00  0.100000D+01
   f     1 1.00
  0.109300D+01  0.100000D+01
  
  2  0
   s    10 1.00
  0.823600D+04  0.531000D-03
  0.123500D+04  0.410800D-02
  0.280800D+03  0.210870D-01
  0.792700D+02  0.818530D-01
  0.255900D+02  0.234817D+00
  0.899700D+01  0.434401D+00
  0.331900D+01  0.346129D+00
  0.905900D+00  0.393780D-01
  0.364300D+00 -0.898300D-02
  0.128500D+00  0.238500D-02
   s    10 1.00
  0.823600D+04 -0.113000D-03
  0.123500D+04 -0.878000D-03
  0.280800D+03 -0.454000D-02
  0.792700D+02 -0.181330D-01
  0.255900D+02 -0.557600D-01
  0.899700D+01 -0.126895D+00
  0.331900D+01 -0.170352D+00
  0.905900D+00  0.140382D+00
  0.364300D+00  0.598684D+00
  0.128500D+00  0.395389D+00
   s     1 1.00
  0.905900D+00  0.100000D+01
   s     1 1.00
  0.364300D+00  0.100000D+01
   p     5 1.00
  0.187100D+02  0.140310D-01
  0.413300D+01  0.868660D-01
  0.120000D+01  0.290216D+00
  0.382700D+00  0.501008D+00
  0.120900D+00  0.343406D+00
   p     1 1.00
  0.382700D+00  0.100000D+01
   p     1 1.00
  0.120900D+00  0.100000D+01
   d     1 1.00
  0.109700D+01  0.100000D+01
   d     1 1.00
  0.318000D+00  0.100000D+01
   f     1 1.00
  0.761000D+00  0.100000D+01
  
  3  0
   s    10 1.00
  0.823600D+04  0.531000D-03
  0.123500D+04  0.410800D-02
  0.280800D+03  0.210870D-01
  0.792700D+02  0.818530D-01
  0.255900D+02  0.234817D+00
  0.899700D+01  0.434401D+00
  0.331900D+01  0.346129D+00
  0.905900D+00  0.393780D-01
  0.364300D+00 -0.898300D-02
  0.128500D+00  0.238500D-02
   s    10 1.00
  0.823600D+04 -0.113000D-03
  0.123500D+04 -0.878000D-03
  0.280800D+03 -0.454000D-02
  0.792700D+02 -0.181330D-01
  0.255900D+02 -0.557600D-01
  0.899700D+01 -0.126895D+00
  0.331900D+01 -0.170352D+00
  0.905900D+00  0.140382D+00
  0.364300D+00  0.598684D+00
  0.128500D+00  0.395389D+00
   s     1 1.00
  0.905900D+00  0.100000D+01
   s     1 1.00
  0.364300D+00  0.100000D+01
   p     5 1.00
  0.187100D+02  0.140310D-01
  0.413300D+01  0.868660D-01
  0.120000D+01  0.290216D+00
  0.382700D+00  0.501008D+00
  0.120900D+00  0.343406D+00
   p     1 1.00
  0.382700D+00  0.100000D+01
   p     1 1.00
  0.120900D+00  0.100000D+01
   d     1 1.00
  0.109700D+01  0.100000D+01
   d     1 1.00
  0.318000D+00  0.100000D+01
   f     1 1.00
  0.761000D+00  0.100000D+01
  
  4  0
   s    10 1.00
  0.823600D+04  0.531000D-03
  0.123500D+04  0.410800D-02
  0.280800D+03  0.210870D-01
  0.792700D+02  0.818530D-01
  0.255900D+02  0.234817D+00
  0.899700D+01  0.434401D+00
  0.331900D+01  0.346129D+00
  0.905900D+00  0.393780D-01
  0.364300D+00 -0.898300D-02
  0.128500D+00  0.238500D-02
   s    10 1.00
  0.823600D+04 -0.113000D-03
  0.123500D+04 -0.878000D-03
  0.280800D+03 -0.454000D-02
  0.792700D+02 -0.181330D-01
  0.255900D+02 -0.557600D-01
  0.899700D+01 -0.126895D+00
  0.331900D+01 -0.170352D+00
  0.905900D+00  0.140382D+00
  0.364300D+00  0.598684D+00
  0.128500D+00  0.395389D+00
   s     1 1.00
  0.905900D+00  0.100000D+01
   s     1 1.00
  0.364300D+00  0.100000D+01
   p     5 1.00
  0.187100D+02  0.140310D-01
  0.413300D+01  0.868660D-01
  0.120000D+01  0.290216D+00
  0.382700D+00  0.501008D+00
  0.120900D+00  0.343406D+00
   p     1 1.00
  0.382700D+00  0.100000D+01
   p     1 1.00
  0.120900D+00  0.100000D+01
   d     1 1.00
  0.109700D+01  0.100000D+01
   d     1 1.00
  0.318000D+00  0.100000D+01
   f     1 1.00
  0.761000D+00  0.100000D+01
  
  5  0
   s    10 1.00
  0.823600D+04  0.531000D-03
  0.123500D+04  0.410800D-02
  0.280800D+03  0.210870D-01
  0.792700D+02  0.818530D-01
  0.255900D+02  0.234817D+00
  0.899700D+01  0.434401D+00
  0.331900D+01  0.346129D+00
  0.905900D+00  0.393780D-01
  0.364300D+00 -0.898300D-02
  0.128500D+00  0.238500D-02
   s    10 1.00
  0.823600D+04 -0.113000D-03
  0.123500D+04 -0.878000D-03
  0.280800D+03 -0.454000D-02
  0.792700D+02 -0.181330D-01
  0.255900D+02 -0.557600D-01
  0.899700D+01 -0.126895D+00
  0.331900D+01 -0.170352D+00
  0.905900D+00  0.140382D+00
  0.364300D+00  0.598684D+00
  0.128500D+00  0.395389D+00
   s     1 1.00
  0.905900D+00  0.100000D+01
   s     1 1.00
  0.364300D+00  0.100000D+01
   p     5 1.00
  0.187100D+02  0.140310D-01
  0.413300D+01  0.868660D-01
  0.120000D+01  0.290216D+00
  0.382700D+00  0.501008D+00
  0.120900D+00  0.343406D+00
   p     1 1.00
  0.382700D+00  0.100000D+01
   p     1 1.00
  0.120900D+00  0.100000D+01
   d     1 1.00
  0.109700D+01  0.100000D+01
   d     1 1.00
  0.318000D+00  0.100000D+01
   f     1 1.00
  0.761000D+00  0.100000D+01
  
  6  0
   s    10 1.00
  0.823600D+04  0.531000D-03
  0.123500D+04  0.410800D-02
  0.280800D+03  0.210870D-01
  0.792700D+02  0.818530D-01
  0.255900D+02  0.234817D+00
  0.899700D+01  0.434401D+00
  0.331900D+01  0.346129D+00
  0.905900D+00  0.393780D-01
  0.364300D+00 -0.898300D-02
  0.128500D+00  0.238500D-02
   s    10 1.00
  0.823600D+04 -0.113000D-03
  0.123500D+04 -0.878000D-03
  0.280800D+03 -0.454000D-02
  0.792700D+02 -0.181330D-01
  0.255900D+02 -0.557600D-01
  0.899700D+01 -0.126895D+00
  0.331900D+01 -0.170352D+00
  0.905900D+00  0.140382D+00
  0.364300D+00  0.598684D+00
  0.128500D+00  0.395389D+00
   s     1 1.00
  0.905900D+00  0.100000D+01
   s     1 1.00
  0.364300D+00  0.100000D+01
   p     5 1.00
  0.187100D+02  0.140310D-01
  0.413300D+01  0.868660D-01
  0.120000D+01  0.290216D+00
  0.382700D+00  0.501008D+00
  0.120900D+00  0.343406D+00
   p     1 1.00
  0.382700D+00  0.100000D+01
   p     1 1.00
  0.120900D+00  0.100000D+01
   d     1 1.00
  0.109700D+01  0.100000D+01
   d     1 1.00
  0.318000D+00  0.100000D+01
   f     1 1.00
  0.761000D+00  0.100000D+01
  
  7  0
   s    10 1.00
  0.823600D+04  0.531000D-03
  0.123500D+04  0.410800D-02
  0.280800D+03  0.210870D-01
  0.792700D+02  0.818530D-01
  0.255900D+02  0.234817D+00
  0.899700D+01  0.434401D+00
  0.331900D+01  0.346129D+00
  0.905900D+00  0.393780D-01
  0.364300D+00 -0.898300D-02
  0.128500D+00  0.238500D-02
   s    10 1.00
  0.823600D+04 -0.113000D-03
  0.123500D+04 -0.878000D-03
  0.280800D+03 -0.454000D-02
  0.792700D+02 -0.181330D-01
  0.255900D+02 -0.557600D-01
  0.899700D+01 -0.126895D+00
  0.331900D+01 -0.170352D+00
  0.905900D+00  0.140382D+00
  0.364300D+00  0.598684D+00
  0.128500D+00  0.395389D+00
   s     1 1.00
  0.905900D+00  0.100000D+01
   s     1 1.00
  0.364300D+00  0.100000D+01
   p     5 1.00
  0.187100D+02  0.140310D-01
  0.413300D+01  0.868660D-01
  0.120000D+01  0.290216D+00
  0.382700D+00  0.501008D+00
  0.120900D+00  0.343406D+00
   p     1 1.00
  0.382700D+00  0.100000D+01
   p     1 1.00
  0.120900D+00  0.100000D+01
   d     1 1.00
  0.109700D+01  0.100000D+01
   d     1 1.00
  0.318000D+00  0.100000D+01
   f     1 1.00
  0.761000D+00  0.100000D+01
  
  8  0
   s     4 1.00
  0.130100D+02  0.196850D-01
  0.196200D+01  0.137977D+00
  0.444600D+00  0.478148D+00
  0.122000D+00  0.501240D+00
   s     1 1.00
  0.122000D+00  0.100000D+01
   p     1 1.00
  0.727000D+00  0.100000D+01
  
  9  0
   s     4 1.00
  0.130100D+02  0.196850D-01
  0.196200D+01  0.137977D+00
  0.444600D+00  0.478148D+00
  0.122000D+00  0.501240D+00
   s     1 1.00
  0.122000D+00  0.100000D+01
   p     1 1.00
  0.727000D+00  0.100000D+01
  
 10  0
   s     4 1.00
  0.130100D+02  0.196850D-01
  0.196200D+01  0.137977D+00
  0.444600D+00  0.478148D+00
  0.122000D+00  0.501240D+00
   s     1 1.00
  0.122000D+00  0.100000D+01
   p     1 1.00
  0.727000D+00  0.100000D+01
  
 11  0
   s     4 1.00
  0.130100D+02  0.196850D-01
  0.196200D+01  0.137977D+00
  0.444600D+00  0.478148D+00
  0.122000D+00  0.501240D+00
   s     1 1.00
  0.122000D+00  0.100000D+01
   p     1 1.00
  0.727000D+00  0.100000D+01
  
 12  0
   s     4 1.00
  0.130100D+02  0.196850D-01
  0.196200D+01  0.137977D+00
  0.444600D+00  0.478148D+00
  0.122000D+00  0.501240D+00
   s     1 1.00
  0.122000D+00  0.100000D+01
   p     1 1.00
  0.727000D+00  0.100000D+01
  
 13  0
   s     4 1.00
  0.130100D+02  0.196850D-01
  0.196200D+01  0.137977D+00
  0.444600D+00  0.478148D+00
  0.122000D+00  0.501240D+00
   s     1 1.00
  0.122000D+00  0.100000D+01
   p     1 1.00
  0.727000D+00  0.100000D+01
  
 14  0
   s     4 1.00
  0.130100D+02  0.196850D-01
  0.196200D+01  0.137977D+00
  0.444600D+00  0.478148D+00
  0.122000D+00  0.501240D+00
   s     1 1.00
  0.122000D+00  0.100000D+01
   p     1 1.00
  0.727000D+00  0.100000D+01
  
[MO]
 Sym= __1_A__
 Ene=  0.000000000000000E+000
 Spin= Alpha
 Occup=    2.00000000000000     
                     1  6.025777468540336E-005
                     2  0.998391430059599     
                     3  3.252820015812851E-003
                     4  1.721292706358749E-003
                     5  4.514730958251197E-003
                     6  3.407767342438098E-003
                     7  6.404840167769378E-003
                     8  0.000000000000000E+000
                     9 -5.877736590095985E-004
                    10 -5.437485787803276E-004
                    11  0.000000000000000E+000
                    12 -2.212678626916659E-003
                    13 -1.411512260986338E-003
                    14  0.000000000000000E+000
                    15 -1.456924192633610E-004
                    16  0.000000000000000E+000
                    17  0.000000000000000E+000
                    18 -1.862830346251301E-004
                    19 -5.175071460745049E-005
                    20  1.846895390935850E-004
                    21  0.000000000000000E+000
                    22  0.000000000000000E+000
                    23 -4.063015706185562E-004
                    24  4.289848444277810E-004
                    25  0.000000000000000E+000
                    26 -1.662493960377751E-005
                    27 -6.925420502110874E-005
                    28  0.000000000000000E+000
                    29  0.000000000000000E+000
                    30  2.919530420059817E-005
                    31 -1.468571572746950E-004
                    32 -3.680202311304596E-004
                    33  1.681363437673986E-003
                    34  3.056317584723052E-004
                    35 -4.566807561620110E-004
                    36 -2.850511601563769E-004
                    37 -5.365290223903616E-003
                    38  0.000000000000000E+000
                    39  3.928642314480884E-004
                    40  5.388894224932882E-004
                    41  0.000000000000000E+000
                    42 -1.903600626449883E-003
                    43  5.408597225554977E-003
                    44  0.000000000000000E+000
                    45 -1.498452602643996E-005
                    46  0.000000000000000E+000
                    47  0.000000000000000E+000
                    48 -2.412103126862822E-004
                    49 -1.596220732083523E-005
                    50 -2.845922512417351E-004
                    51  0.000000000000000E+000
                    52  0.000000000000000E+000
                    53  1.063856321204111E-004
                    54  6.498429274821311E-004
                    55  0.000000000000000E+000
                    56 -1.347765201361983E-005
                    57 -5.241210050831842E-005
                    58  0.000000000000000E+000
                    59  0.000000000000000E+000
                    60  4.889259582186737E-005
                    61 -1.311663070640156E-004
                    62 -4.360203316132292E-004
                    63 -2.113034713134877E-003
                    64 -7.596166338670616E-005
                    65  1.833581010965805E-003
                    66 -7.028437284048242E-004
                    67  5.329051655654292E-004
                    68  0.000000000000000E+000
                    69  3.245121047919052E-004
                    70  8.485980874247734E-004
                    71  0.000000000000000E+000
                    72 -1.847036843158669E-003
                    73  8.264597078539981E-004
                    74  0.000000000000000E+000
                    75 -3.665824660782120E-005
                    76  0.000000000000000E+000
                    77  0.000000000000000E+000
                    78 -7.551933779317790E-005
                    79 -2.303730907989203E-005
                    80 -1.176465620432266E-004
                    81  0.000000000000000E+000
                    82  0.000000000000000E+000
                    83 -3.418624986020168E-006
                    84  1.102848032674690E-004
                    85  0.000000000000000E+000
                    86  1.277494781999013E-005
                    87 -5.022228154263997E-005
                    88  0.000000000000000E+000
                    89  0.000000000000000E+000
                    90 -3.071355661858114E-005
                    91 -1.435752634043092E-004
                    92 -1.809390833502749E-004
                    93 -1.300305522484950E-003
                    94  1.980314432593051E-004
                    95 -1.111443789440740E-004
                    96  6.422997222876288E-004
                    97  7.800753081358818E-004
                    98  0.000000000000000E+000
                    99  3.563166937098970E-004
                   100  3.869157784803119E-004
                   101  0.000000000000000E+000
                   102  4.516892037653831E-004
                   103 -1.505552647288089E-003
                   104  0.000000000000000E+000
                   105 -7.221746938598731E-007
                   106  0.000000000000000E+000
                   107  0.000000000000000E+000
                   108 -8.611550633263166E-005
                   109 -1.620452254403235E-005
                   110  8.902617914012447E-005
                   111  0.000000000000000E+000
                   112  0.000000000000000E+000
                   113 -1.112046285876689E-004
                   114 -6.226235932136920E-005
                   115  0.000000000000000E+000
                   116 -2.683816426531982E-005
                   117 -2.802406290612173E-005
                   118  0.000000000000000E+000
                   119  0.000000000000000E+000
                   120 -1.639339057649460E-005
                   121 -3.568310011737495E-005
                   122 -2.503782708006222E-004
                   123 -4.708829476415920E-004
                   124  1.717966040536190E-004
                   125  2.740117833555101E-004
                   126 -1.202518421883967E-005
                   127 -5.867681345414863E-004
                   128  0.000000000000000E+000
                   129  1.791511609325014E-004
                   130  6.387174596326562E-004
                   131  0.000000000000000E+000
                   132  5.361615183278898E-004
                   133  1.942672421151626E-003
                   134  0.000000000000000E+000
                   135  1.540376428879711E-005
                   136  0.000000000000000E+000
                   137  0.000000000000000E+000
                   138  3.870453126302588E-005
                   139  1.499274195958601E-006
                   140  1.726167859436942E-004
                   141  0.000000000000000E+000
                   142  0.000000000000000E+000
                   143  3.635380759849138E-004
                   144  2.273756544491105E-004
                   145  0.000000000000000E+000
                   146 -9.549170252351013E-006
                   147 -5.726097892722965E-005
                   148  0.000000000000000E+000
                   149  0.000000000000000E+000
                   150 -1.074691553810165E-005
                   151 -4.238948370217766E-005
                   152 -1.667804394744254E-004
                   153 -1.862272229496215E-004
                   154  6.055248407032739E-005
                   155  2.832319957931462E-004
                   156 -2.875205534082402E-005
                   157 -5.442738549054795E-004
                   158  0.000000000000000E+000
                   159  3.779928735637523E-005
                   160  6.888439097200707E-005
                   161  0.000000000000000E+000
                   162  7.690002177416185E-004
                   163 -2.250209840376478E-004
                   164  0.000000000000000E+000
                   165 -8.091460100996153E-007
                   166  0.000000000000000E+000
                   167  0.000000000000000E+000
                   168 -4.578822141326580E-006
                   169  4.630730063306879E-007
                   170  9.317475592455456E-005
                   171  0.000000000000000E+000
                   172  0.000000000000000E+000
                   173  2.977562478355990E-005
                   174 -3.632591213696592E-005
                   175  0.000000000000000E+000
                   176  7.995639692098782E-007
                   177 -1.179498193098201E-005
                   178  0.000000000000000E+000
                   179  0.000000000000000E+000
                   180 -1.123952484163375E-005
                   181 -2.029398708182759E-005
                   182 -1.658110112593043E-004
                   183 -4.789500808644627E-004
                   184  4.104042385978136E-005
                   185  2.404494665935911E-004
                   186 -4.308302102918759E-005
                   187 -4.783095543047953E-005
                   188  0.000000000000000E+000
                   189  2.337857848659638E-004
                   190  6.986723319368151E-005
                   191  0.000000000000000E+000
                   192  1.258655847562438E-003
                   193 -1.670580954054632E-004
                   194  0.000000000000000E+000
                   195  3.363256308638090E-007
                   196  0.000000000000000E+000
                   197  0.000000000000000E+000
                   198 -1.273062884436110E-005
                   199  2.536532780306955E-006
                   200 -2.467840811714647E-006
                   201  0.000000000000000E+000
                   202  0.000000000000000E+000
                   203 -8.055669314835536E-005
                   204 -1.799660544907817E-004
                   205  0.000000000000000E+000
                   206 -8.496073453166985E-006
                   207 -4.794749134859476E-006
                   208  0.000000000000000E+000
                   209  0.000000000000000E+000
                   210  5.352983398509030E-006
                   211 -8.551607060054702E-006
                   212  1.616148006330629E-004
                   213 -4.842765810203562E-005
                   214  1.882421482059425E-004
                   215  1.689480934746003E-004
                   216  0.000000000000000E+000
                   217  1.855878522346988E-003
                   218 -1.709299616115512E-003
                   219 -4.358016080670472E-004
                   220  2.361071231295540E-004
                   221  0.000000000000000E+000
                   222 -4.473012248960868E-004
                   223 -6.915219506585499E-004
                   224 -8.808781207576590E-006
                   225 -5.651875939587920E-005
                   226  0.000000000000000E+000
                   227 -3.436928063490445E-004
                   228 -4.083777567007733E-004
                   229 -1.302049545271334E-005
                   230 -2.791964065523823E-005
                   231  0.000000000000000E+000
                   232 -1.160483444151757E-004
                   233 -4.497525808319240E-004
                   234  2.193306561879222E-007
                   235  2.284962362250605E-006
                   236  0.000000000000000E+000
                   237 -1.708960032960118E-004
                   238 -4.348576553367619E-004
                   239  3.387567458210334E-006
                   240 -6.957060981642166E-007
                   241  0.000000000000000E+000
                   242  1.074536773304304E-005
                   243 -1.588972589038589E-005
                   244  3.554966362725920E-007
                   245  2.518047303126039E-005
                   246  0.000000000000000E+000
 Sym= __2_A__
 Ene=  0.000000000000000E+000
 Spin= Alpha
 Occup=    2.00000000000000     
                     1 -4.986739426295082E-005
                     2 -3.236740817768536E-004
                     3  2.569397428824879E-003
                     4  1.485525148367616E-004
                     5  1.430097050067286E-003
                     6 -3.133084970612560E-004
                     7  3.144766258305236E-003
                     8  0.000000000000000E+000
                     9 -1.989596733800000E-005
                    10 -1.017572667945188E-004
                    11  0.000000000000000E+000
                    12  1.165953025337418E-005
                    13 -4.803583830424153E-004
                    14  0.000000000000000E+000
                    15  4.050934044697726E-005
                    16  0.000000000000000E+000
                    17  0.000000000000000E+000
                    18 -5.197033085938624E-005
                    19  1.645353371166239E-005
                    20 -1.341279231190133E-004
                    21  0.000000000000000E+000
                    22  0.000000000000000E+000
                    23  2.080782471232688E-004
                    24 -1.201895525716496E-004
                    25  0.000000000000000E+000
                    26 -1.608536400403971E-005
                    27  9.454134376421764E-005
                    28  0.000000000000000E+000
                    29  0.000000000000000E+000
                    30 -5.699381849866689E-005
                    31  1.308810073139380E-004
                    32   1.00100107772196     
                    33  9.346084142558013E-003
                    34  2.705873595813981E-003
                    35 -7.979953205461032E-003
                    36 -1.572228526332631E-005
                    37 -3.495062529410710E-003
                    38  0.000000000000000E+000
                    39 -1.937042365752767E-004
                    40  1.997145833930154E-004
                    41  0.000000000000000E+000
                    42 -1.062746500164753E-004
                    43  4.282372700304728E-003
                    44  0.000000000000000E+000
                    45 -5.680818776662521E-004
                    46  0.000000000000000E+000
                    47  0.000000000000000E+000
                    48 -2.483922286678978E-004
                    49  4.623447111355358E-005
                    50  5.123138247377473E-004
                    51  0.000000000000000E+000
                    52  0.000000000000000E+000
                    53 -7.241090238534806E-004
                    54 -3.503811483150757E-004
                    55  0.000000000000000E+000
                    56  1.266410886802648E-005
                    57  1.075363391802095E-004
                    58  0.000000000000000E+000
                    59  0.000000000000000E+000
                    60 -3.579178018212206E-005
                    61  4.086623700415065E-004
                    62  8.381684146663159E-003
                    63 -2.085308073393606E-003
                    64 -2.369324795089721E-004
                    65  2.724104657810477E-003
                    66 -4.920326464881959E-007
                    67  5.771118624765939E-005
                    68  0.000000000000000E+000
                    69  5.582924590161667E-004
                    70  1.205371931304173E-004
                    71  0.000000000000000E+000
                    72 -2.159202738749508E-003
                    73  2.596711280747290E-004
                    74  0.000000000000000E+000
                    75  3.318365688932270E-005
                    76  0.000000000000000E+000
                    77  0.000000000000000E+000
                    78 -4.724557710609590E-006
                    79  3.756553126989608E-007
                    80 -4.041114402364659E-004
                    81  0.000000000000000E+000
                    82  0.000000000000000E+000
                    83 -6.151983055724107E-004
                    84 -2.562084437666511E-004
                    85  0.000000000000000E+000
                    86  2.676800174821585E-005
                    87 -5.717506481388219E-005
                    88  0.000000000000000E+000
                    89  0.000000000000000E+000
                    90  4.662749903760780E-005
                    91  1.532567282203132E-004
                    92  9.835040089770240E-003
                    93 -2.101020917424366E-003
                    94 -3.153440665576184E-004
                    95  3.207110312107244E-003
                    96  6.201785396210985E-005
                    97  2.947125485752998E-005
                    98  0.000000000000000E+000
                    99 -9.351421850417948E-004
                   100  2.165539858429430E-005
                   101  0.000000000000000E+000
                   102  1.852034038362991E-003
                   103  3.143689764295564E-005
                   104  0.000000000000000E+000
                   105  2.113193302550218E-005
                   106  0.000000000000000E+000
                   107  0.000000000000000E+000
                   108 -9.006998300185440E-007
                   109  1.245890684827529E-005
                   110 -4.221244682104036E-004
                   111  0.000000000000000E+000
                   112  0.000000000000000E+000
                   113 -3.972749128542232E-004
                   114  2.787225639588912E-004
                   115  0.000000000000000E+000
                   116 -2.539725534593541E-005
                   117 -6.856151576165953E-005
                   118  0.000000000000000E+000
                   119  0.000000000000000E+000
                   120 -1.260398946229443E-005
                   121  1.369405733898493E-004
                   122 -2.053681662420722E-004
                   123 -7.166616534357902E-004
                   124  2.230683259104796E-004
                   125 -6.837624436915472E-005
                   126  7.335403279326936E-006
                   127 -3.309370980888129E-004
                   128  0.000000000000000E+000
                   129 -8.944689221782924E-005
                   130  5.699585600894491E-004
                   131  0.000000000000000E+000
                   132  3.634952217941030E-004
                   133  9.169722313478269E-004
                   134  0.000000000000000E+000
                   135  1.601520121797715E-005
                   136  0.000000000000000E+000
                   137  0.000000000000000E+000
                   138  2.493081069776260E-006
                   139  4.455367505522373E-005
                   140  1.338192153630756E-004
                   141  0.000000000000000E+000
                   142  0.000000000000000E+000
                   143  2.411082671466446E-004
                   144 -1.086651877073097E-004
                   145  0.000000000000000E+000
                   146  1.040786966179775E-005
                   147 -3.737264093031275E-005
                   148  0.000000000000000E+000
                   149  0.000000000000000E+000
                   150 -4.860107910349973E-005
                   151  3.779844342066816E-005
                   152 -1.393022459129608E-004
                   153 -7.018385056566836E-004
                   154  2.313178756473666E-004
                   155 -2.999935182530546E-005
                   156 -2.721091761397091E-005
                   157 -3.309687188324245E-004
                   158  0.000000000000000E+000
                   159  1.300974941379555E-004
                   160  5.378652577885417E-004