[Molden Format]
[Atoms] AU
  N     1    7     0.0039820000   -0.0001300200   -4.3068599600        
  C     2    6     0.0022904300   -0.0008570400   -1.7712645500        
  C     3    6     0.0508956200   -2.3362320300   -0.4126997000        
  C     4    6    -0.0481282300    2.3337385000   -0.4114267500        
  C     5    6     0.0792894800   -2.2993382400    2.1659613900        
  C     6    6    -0.0799626000    2.2953659400    2.1671725800        
  C     7    6    -0.0012084600   -0.0023609000    3.4735422400        
  H     8    1    -0.7598582300   -1.4733812000   -5.3227712300        
  H     9    1     0.7691764700    1.4737032300   -5.3209061300        
  H    10    1     0.1238532400   -4.0680434000   -1.4498750800        
  H    11    1    -0.1197026200    4.0661443800   -1.4477052500        
  H    12    1     0.1668411500   -4.0391922200    3.1986356400        
  H    13    1    -0.1688927000    4.0346274700    3.2007266600        
  H    14    1    -0.0025607400   -0.0029421300    5.5006075100        
[5D]
[7F]
[GTO]
  1  0
   s    12 1.00
  0.114200D+05  0.172695D-04
  0.171200D+04  0.134411D-03
  0.389300D+03  0.694561D-03
  0.110000D+03  0.278531D-02
  0.355700D+02  0.863457D-02
  0.125400D+02  0.199805D-01
  0.464400D+01  0.262908D-01
  0.129300D+01 -0.243845D-01
  0.511800D+00 -0.924934D-01
  0.178700D+00 -0.339683D+00
  0.246240D-01  0.345111D+00
  0.112530D-01  0.752750D+00
   s    10 1.00
  0.114200D+05  0.523000D-03
  0.171200D+04  0.404500D-02
  0.389300D+03  0.207750D-01
  0.110000D+03  0.807269D-01
  0.355700D+02  0.233074D+00
  0.125400D+02  0.433501D+00
  0.464400D+01  0.347472D+00
  0.129300D+01  0.412620D-01
  0.511800D+00 -0.850799D-02
  0.178700D+00  0.238400D-02
   s    10 1.00
  0.114200D+05 -0.115000D-03
  0.171200D+04 -0.895000D-03
  0.389300D+03 -0.462400D-02
  0.110000D+03 -0.185280D-01
  0.355700D+02 -0.573390D-01
  0.125400D+02 -0.132076D+00
  0.464400D+01 -0.172510D+00
  0.129300D+01  0.151814D+00
  0.511800D+00  0.599944D+00
  0.178700D+00  0.387462D+00
   s     1 1.00
  0.129300D+01  0.100000D+01
   s     1 1.00
  0.178700D+00  0.100000D+01
   p     5 1.00
  0.266300D+02  0.146700D-01
  0.594800D+01  0.917640D-01
  0.174200D+01  0.298683D+00
  0.555000D+00  0.498487D+00
  0.172500D+00  0.337023D+00
   p     1 1.00
  0.174200D+01  0.100000D+01
   p     1 1.00
  0.555000D+00  0.100000D+01
   d     1 1.00
  0.165400D+01  0.100000D+01
   d     1 1.00
  0.469000D+00  0.100000D+01
   f     1 1.00
  0.109300D+01  0.100000D+01
  
  2  0
   s    10 1.00
  0.823600D+04  0.531000D-03
  0.123500D+04  0.410800D-02
  0.280800D+03  0.210870D-01
  0.792700D+02  0.818530D-01
  0.255900D+02  0.234817D+00
  0.899700D+01  0.434401D+00
  0.331900D+01  0.346129D+00
  0.905900D+00  0.393780D-01
  0.364300D+00 -0.898300D-02
  0.128500D+00  0.238500D-02
   s    10 1.00
  0.823600D+04 -0.113000D-03
  0.123500D+04 -0.878000D-03
  0.280800D+03 -0.454000D-02
  0.792700D+02 -0.181330D-01
  0.255900D+02 -0.557600D-01
  0.899700D+01 -0.126895D+00
  0.331900D+01 -0.170352D+00
  0.905900D+00  0.140382D+00
  0.364300D+00  0.598684D+00
  0.128500D+00  0.395389D+00
   s     1 1.00
  0.905900D+00  0.100000D+01
   s     1 1.00
  0.364300D+00  0.100000D+01
   p     5 1.00
  0.187100D+02  0.140310D-01
  0.413300D+01  0.868660D-01
  0.120000D+01  0.290216D+00
  0.382700D+00  0.501008D+00
  0.120900D+00  0.343406D+00
   p     1 1.00
  0.382700D+00  0.100000D+01
   p     1 1.00
  0.120900D+00  0.100000D+01
   d     1 1.00
  0.109700D+01  0.100000D+01
   d     1 1.00
  0.318000D+00  0.100000D+01
   f     1 1.00
  0.761000D+00  0.100000D+01
  
  3  0
   s    10 1.00
  0.823600D+04  0.531000D-03
  0.123500D+04  0.410800D-02
  0.280800D+03  0.210870D-01
  0.792700D+02  0.818530D-01
  0.255900D+02  0.234817D+00
  0.899700D+01  0.434401D+00
  0.331900D+01  0.346129D+00
  0.905900D+00  0.393780D-01
  0.364300D+00 -0.898300D-02
  0.128500D+00  0.238500D-02
   s    10 1.00
  0.823600D+04 -0.113000D-03
  0.123500D+04 -0.878000D-03
  0.280800D+03 -0.454000D-02
  0.792700D+02 -0.181330D-01
  0.255900D+02 -0.557600D-01
  0.899700D+01 -0.126895D+00
  0.331900D+01 -0.170352D+00
  0.905900D+00  0.140382D+00
  0.364300D+00  0.598684D+00
  0.128500D+00  0.395389D+00
   s     1 1.00
  0.905900D+00  0.100000D+01
   s     1 1.00
  0.364300D+00  0.100000D+01
   p     5 1.00
  0.187100D+02  0.140310D-01
  0.413300D+01  0.868660D-01
  0.120000D+01  0.290216D+00
  0.382700D+00  0.501008D+00
  0.120900D+00  0.343406D+00
   p     1 1.00
  0.382700D+00  0.100000D+01
   p     1 1.00
  0.120900D+00  0.100000D+01
   d     1 1.00
  0.109700D+01  0.100000D+01
   d     1 1.00
  0.318000D+00  0.100000D+01
   f     1 1.00
  0.761000D+00  0.100000D+01
  
  4  0
   s    10 1.00
  0.823600D+04  0.531000D-03
  0.123500D+04  0.410800D-02
  0.280800D+03  0.210870D-01
  0.792700D+02  0.818530D-01
  0.255900D+02  0.234817D+00
  0.899700D+01  0.434401D+00
  0.331900D+01  0.346129D+00
  0.905900D+00  0.393780D-01
  0.364300D+00 -0.898300D-02
  0.128500D+00  0.238500D-02
   s    10 1.00
  0.823600D+04 -0.113000D-03
  0.123500D+04 -0.878000D-03
  0.280800D+03 -0.454000D-02
  0.792700D+02 -0.181330D-01
  0.255900D+02 -0.557600D-01
  0.899700D+01 -0.126895D+00
  0.331900D+01 -0.170352D+00
  0.905900D+00  0.140382D+00
  0.364300D+00  0.598684D+00
  0.128500D+00  0.395389D+00
   s     1 1.00
  0.905900D+00  0.100000D+01
   s     1 1.00
  0.364300D+00  0.100000D+01
   p     5 1.00
  0.187100D+02  0.140310D-01
  0.413300D+01  0.868660D-01
  0.120000D+01  0.290216D+00
  0.382700D+00  0.501008D+00
  0.120900D+00  0.343406D+00
   p     1 1.00
  0.382700D+00  0.100000D+01
   p     1 1.00
  0.120900D+00  0.100000D+01
   d     1 1.00
  0.109700D+01  0.100000D+01
   d     1 1.00
  0.318000D+00  0.100000D+01
   f     1 1.00
  0.761000D+00  0.100000D+01
  
  5  0
   s    10 1.00
  0.823600D+04  0.531000D-03
  0.123500D+04  0.410800D-02
  0.280800D+03  0.210870D-01
  0.792700D+02  0.818530D-01
  0.255900D+02  0.234817D+00
  0.899700D+01  0.434401D+00
  0.331900D+01  0.346129D+00
  0.905900D+00  0.393780D-01
  0.364300D+00 -0.898300D-02
  0.128500D+00  0.238500D-02
   s    10 1.00
  0.823600D+04 -0.113000D-03
  0.123500D+04 -0.878000D-03
  0.280800D+03 -0.454000D-02
  0.792700D+02 -0.181330D-01
  0.255900D+02 -0.557600D-01
  0.899700D+01 -0.126895D+00
  0.331900D+01 -0.170352D+00
  0.905900D+00  0.140382D+00
  0.364300D+00  0.598684D+00
  0.128500D+00  0.395389D+00
   s     1 1.00
  0.905900D+00  0.100000D+01
   s     1 1.00
  0.364300D+00  0.100000D+01
   p     5 1.00
  0.187100D+02  0.140310D-01
  0.413300D+01  0.868660D-01
  0.120000D+01  0.290216D+00
  0.382700D+00  0.501008D+00
  0.120900D+00  0.343406D+00
   p     1 1.00
  0.382700D+00  0.100000D+01
   p     1 1.00
  0.120900D+00  0.100000D+01
   d     1 1.00
  0.109700D+01  0.100000D+01
   d     1 1.00
  0.318000D+00  0.100000D+01
   f     1 1.00
  0.761000D+00  0.100000D+01
  
  6  0
   s    10 1.00
  0.823600D+04  0.531000D-03
  0.123500D+04  0.410800D-02
  0.280800D+03  0.210870D-01
  0.792700D+02  0.818530D-01
  0.255900D+02  0.234817D+00
  0.899700D+01  0.434401D+00
  0.331900D+01  0.346129D+00
  0.905900D+00  0.393780D-01
  0.364300D+00 -0.898300D-02
  0.128500D+00  0.238500D-02
   s    10 1.00
  0.823600D+04 -0.113000D-03
  0.123500D+04 -0.878000D-03
  0.280800D+03 -0.454000D-02
  0.792700D+02 -0.181330D-01
  0.255900D+02 -0.557600D-01
  0.899700D+01 -0.126895D+00
  0.331900D+01 -0.170352D+00
  0.905900D+00  0.140382D+00
  0.364300D+00  0.598684D+00
  0.128500D+00  0.395389D+00
   s     1 1.00
  0.905900D+00  0.100000D+01
   s     1 1.00
  0.364300D+00  0.100000D+01
   p     5 1.00
  0.187100D+02  0.140310D-01
  0.413300D+01  0.868660D-01
  0.120000D+01  0.290216D+00
  0.382700D+00  0.501008D+00
  0.120900D+00  0.343406D+00
   p     1 1.00
  0.382700D+00  0.100000D+01
   p     1 1.00
  0.120900D+00  0.100000D+01
   d     1 1.00
  0.109700D+01  0.100000D+01
   d     1 1.00
  0.318000D+00  0.100000D+01
   f     1 1.00
  0.761000D+00  0.100000D+01
  
  7  0
   s    10 1.00
  0.823600D+04  0.531000D-03
  0.123500D+04  0.410800D-02
  0.280800D+03  0.210870D-01
  0.792700D+02  0.818530D-01
  0.255900D+02  0.234817D+00
  0.899700D+01  0.434401D+00
  0.331900D+01  0.346129D+00
  0.905900D+00  0.393780D-01
  0.364300D+00 -0.898300D-02
  0.128500D+00  0.238500D-02
   s    10 1.00
  0.823600D+04 -0.113000D-03
  0.123500D+04 -0.878000D-03
  0.280800D+03 -0.454000D-02
  0.792700D+02 -0.181330D-01
  0.255900D+02 -0.557600D-01
  0.899700D+01 -0.126895D+00
  0.331900D+01 -0.170352D+00
  0.905900D+00  0.140382D+00
  0.364300D+00  0.598684D+00
  0.128500D+00  0.395389D+00
   s     1 1.00
  0.905900D+00  0.100000D+01
   s     1 1.00
  0.364300D+00  0.100000D+01
   p     5 1.00
  0.187100D+02  0.140310D-01
  0.413300D+01  0.868660D-01
  0.120000D+01  0.290216D+00
  0.382700D+00  0.501008D+00
  0.120900D+00  0.343406D+00
   p     1 1.00
  0.382700D+00  0.100000D+01
   p     1 1.00
  0.120900D+00  0.100000D+01
   d     1 1.00
  0.109700D+01  0.100000D+01
   d     1 1.00
  0.318000D+00  0.100000D+01
   f     1 1.00
  0.761000D+00  0.100000D+01
  
  8  0
   s     4 1.00
  0.130100D+02  0.196850D-01
  0.196200D+01  0.137977D+00
  0.444600D+00  0.478148D+00
  0.122000D+00  0.501240D+00
   s     1 1.00
  0.122000D+00  0.100000D+01
   p     1 1.00
  0.727000D+00  0.100000D+01
  
  9  0
   s     4 1.00
  0.130100D+02  0.196850D-01
  0.196200D+01  0.137977D+00
  0.444600D+00  0.478148D+00
  0.122000D+00  0.501240D+00
   s     1 1.00
  0.122000D+00  0.100000D+01
   p     1 1.00
  0.727000D+00  0.100000D+01
  
 10  0
   s     4 1.00
  0.130100D+02  0.196850D-01
  0.196200D+01  0.137977D+00
  0.444600D+00  0.478148D+00
  0.122000D+00  0.501240D+00
   s     1 1.00
  0.122000D+00  0.100000D+01
   p     1 1.00
  0.727000D+00  0.100000D+01
  
 11  0
   s     4 1.00
  0.130100D+02  0.196850D-01
  0.196200D+01  0.137977D+00
  0.444600D+00  0.478148D+00
  0.122000D+00  0.501240D+00
   s     1 1.00
  0.122000D+00  0.100000D+01
   p     1 1.00
  0.727000D+00  0.100000D+01
  
 12  0
   s     4 1.00
  0.130100D+02  0.196850D-01
  0.196200D+01  0.137977D+00
  0.444600D+00  0.478148D+00
  0.122000D+00  0.501240D+00
   s     1 1.00
  0.122000D+00  0.100000D+01
   p     1 1.00
  0.727000D+00  0.100000D+01
  
 13  0
   s     4 1.00
  0.130100D+02  0.196850D-01
  0.196200D+01  0.137977D+00
  0.444600D+00  0.478148D+00
  0.122000D+00  0.501240D+00
   s     1 1.00
  0.122000D+00  0.100000D+01
   p     1 1.00
  0.727000D+00  0.100000D+01
  
 14  0
   s     4 1.00
  0.130100D+02  0.196850D-01
  0.196200D+01  0.137977D+00
  0.444600D+00  0.478148D+00
  0.122000D+00  0.501240D+00
   s     1 1.00
  0.122000D+00  0.100000D+01
   p     1 1.00
  0.727000D+00  0.100000D+01
  
[MO]
 Sym= __1_A__
 Ene=  0.000000000000000E+000
 Spin= Alpha
 Occup=    2.00000000000000     
                     1  4.422510554338042E-005
                     2  0.998029816882646     
                     3  9.101116900782526E-003
                     4  2.079550510336343E-003
                     5  1.624352104919456E-003
                     6 -2.933812083741964E-006
                     7 -1.272966741961684E-006
                     8  4.406006155853018E-003
                     9  9.961179247079133E-008
                    10  5.417493124025151E-008
                    11 -1.537142022049127E-004
                    12  1.551162203114359E-007
                    13  3.685718509158030E-008
                    14 -2.364830941697500E-004
                    15  2.427441419290227E-004
                    16 -3.087789508175205E-007
                    17 -5.180677146758601E-008
                    18 -7.370162334783603E-005
                    19  7.072040122888038E-005
                    20  1.349620251404935E-004
                    21 -4.413096913199300E-008
                    22 -4.615144917552515E-007
                    23  3.472274618255716E-004
                    24 -4.045728835974414E-004
                    25 -1.850533788886492E-004
                    26 -2.523688185930147E-007
                    27 -2.073213041119470E-007
                    28  6.679105830308732E-005
                    29 -4.497053740775718E-005
                    30  7.090335329571448E-008
                    31  1.210382009765327E-008
                    32 -3.121433112731835E-004
                    33  2.737647715650477E-003
                    34  1.448151049701973E-004
                    35 -3.448053633543519E-004
                    36  4.584291900459516E-006
                    37  1.990528353201656E-006
                    38 -6.878759039320110E-003
                    39 -1.551658417581916E-007
                    40 -1.197408742926688E-007
                    41  2.412386177950617E-004
                    42 -2.892500740840252E-006
                    43 -1.198801180862686E-006
                    44  4.327122739528308E-003
                    45  3.462913440408494E-004
                    46 -3.202478728286449E-007
                    47 -2.063437987013553E-007
                    48  1.248357705658663E-004
                    49 -1.228857702942880E-005
                    50  2.101018664906451E-004
                    51 -4.165380703586915E-007
                    52 -9.152955795831741E-008
                    53 -3.032218747085514E-004
                    54  1.006471037801312E-004
                    55 -1.020460491928086E-004
                    56 -1.038499084578693E-007
                    57 -1.252209424401397E-007
                    58  6.741989912110198E-005
                    59 -1.946892745416311E-005
                    60  6.181637843962025E-008
                    61 -1.149519233796718E-008
                    62 -2.075771612722873E-004
                    63 -1.657028366358512E-003
                    64  3.879286319673086E-005
                    65  6.423296606722888E-004
                    66 -2.239285201901709E-005
                    67 -8.387132247087024E-004
                    68  1.012150519983897E-003
                    69  4.950480523728917E-005
                    70  5.325953797821225E-006
                    71  5.028772531249280E-004
                    72  3.073320719388459E-005
                    73 -6.330517008390573E-004
                    74 -1.791391716308134E-004
                    75  8.957263966443576E-005
                    76  2.472516182060038E-006
                    77 -1.038814463544806E-005
                    78  3.696505734139524E-005
                    79 -3.493335424166650E-007
                    80  1.018725755389065E-005
                    81 -3.232148926905519E-005
                    82  1.473385600189178E-004
                    83 -1.374473865061645E-005
                    84  2.936798659188396E-005
                    85 -8.928550299341074E-005
                    86  3.863397339144372E-006
                    87 -2.211816619941350E-005
                    88  2.136801822323212E-005
                    89 -6.755484450727194E-006
                    90  1.847397289082050E-006
                    91  1.584685874751557E-005
                    92 -2.075409015622393E-004
                    93 -1.656882715385365E-003
                    94  3.895801527606968E-005
                    95  6.417871882800272E-004
                    96  2.104000431764401E-005
                    97  8.381518247384443E-004
                    98  1.012768710795781E-003
                    99 -5.016719443870694E-005
                   100 -5.753953291033195E-006
                   101  5.021800434007347E-004
                   102 -3.047081274572612E-005
                   103  6.325805140520210E-004
                   104 -1.786565756952028E-004
                   105  8.954444844769134E-005
                   106 -2.629981448984971E-006
                   107  1.029444375244713E-005
                   108  3.697637761557266E-005
                   109 -3.617814770940844E-007
                   110  9.675313640907323E-006
                   111  3.230424433522042E-005
                   112 -1.474085994405523E-004
                   113 -1.396130167296329E-005
                   114  2.954332339259501E-005
                   115 -8.923600624756045E-005
                   116 -4.115282316843697E-006
                   117  2.196105944492413E-005
                   118  2.138391181592668E-005
                   119 -6.826089411984496E-006
                   120 -1.808037056932089E-006
                   121 -1.584996040378476E-005
                   122 -1.514836234686913E-004
                   123 -1.420063207566640E-005
                   124  1.048646849972675E-004
                   125  1.538374625365648E-004
                   126 -2.960327672296952E-005
                   127  4.130932634775912E-005
                   128 -7.789396727968168E-004
                   129  4.584542362615283E-007
                   130  2.407717911012142E-005
                   131  3.205968970604938E-004
                   132  1.693902770434635E-005
                   133 -1.300721484436296E-004
                   134  6.834235423686683E-004
                   135 -1.453172237598681E-005
                   136  1.954740164893333E-006
                   137  2.468831758392646E-006
                   138  4.953685033216296E-007
                   139  1.542354648779023E-006
                   140 -1.782985272007288E-004
                   141 -1.698452354659501E-005
                   142  1.495653397764725E-004
                   143  1.790733488587281E-005
                   144 -8.748214216534852E-006
                   145 -3.618965787075002E-005
                   146  2.848013744064475E-007
                   147 -1.781809804093428E-007
                   148 -8.793266793935113E-006
                   149 -1.418922446962416E-006
                   150 -7.392797342504394E-007
                   151 -3.147230737667055E-006
                   152 -1.519585432872864E-004
                   153 -1.587919662707653E-005
                   154  1.043847074458270E-004
                   155  1.568608302218213E-004
                   156  3.063431661136896E-005
                   157 -4.080592574240268E-005
                   158 -7.788923141725608E-004
                   159 -8.584516112999840E-007
                   160 -2.461952800492605E-005
                   161  3.202283773975184E-004
                   162 -1.787603206186518E-005
                   163  1.302266441118740E-004
                   164  6.836462416620659E-004
                   165 -1.448465642402159E-005
                   166 -1.921038484366100E-006
                   167 -2.460562335704587E-006
                   168  4.447131891574302E-007
                   169  1.542354365505762E-006
                   170 -1.782741872359455E-004
                   171  1.741741351978738E-005
                   172 -1.496678864163169E-004
                   173  1.775278998942913E-005
                   174 -8.558328100606847E-006
                   175 -3.610144550556684E-005
                   176 -4.203167440510045E-007
                   177  1.397507747531339E-007
                   178 -8.842714962750202E-006
                   179 -1.416941395113014E-006
                   180  7.259984252841775E-007
                   181  3.165250150757177E-006
                   182 -1.269275870126089E-004
                   183 -3.414192876749613E-004
                   184  3.072646353741814E-005
                   185  1.758303185632857E-004
                   186  2.279635531508758E-008
                   187  9.961787709399142E-008
                   188 -4.406242742181564E-005
                   189  9.121154048497621E-009
                   190 -4.401732466858513E-007
                   191  1.686249207853005E-005
                   192 -8.143922571781852E-009
                   193 -4.552255939462358E-008
                   194  1.779752078968187E-005
                   195  1.857277056310460E-005
                   196 -1.683798218924486E-008
                   197  1.299863334627615E-008
                   198  8.235931370593425E-006
                   199  7.582841613627783E-007
                   200  5.375446602899984E-005
                   201 -4.251224078930145E-008
                   202  1.691911977431574E-007
                   203  4.202571579617306E-005
                   204 -5.888275228902605E-006
                   205 -1.166289360307850E-005
                   206 -1.422808706938959E-008
                   207 -1.561498048927265E-008
                   208  3.321265429351108E-006
                   209  1.864107380355267E-006
                   210  4.891089389325626E-009
                   211  2.460215564076694E-008
                   212  3.888540312245455E-003
                   213 -2.333551223175015E-003
                   214  2.310876064824433E-004
                   215  4.095868330325839E-004
                   216  3.686411198999712E-004
                   217  3.888514806989659E-003
                   218 -2.333540654342452E-003
                   219 -2.315782421714325E-004
                   220 -4.097966619163229E-004
                   221  3.680988866511299E-004
                   222 -6.346446279486379E-004
                   223 -1.854774158566137E-004
                   224  2.260010952288889E-006
                   225 -2.192063418901106E-005
                   226 -4.275091241248635E-005
                   227 -6.347132080266794E-004
                   228 -1.851046290182936E-004
                   229 -2.202892797390358E-006
                   230  2.192706045763090E-005
                   231 -4.276784198575904E-005
                   232 -2.307658910673572E-004
                   233 -3.745178766242100E-004
                   234 -2.336363664776016E-006
                   235 -7.173959615743375E-006
                   236  4.235371713886663E-006
                   237 -2.308055371024754E-004
                   238 -3.746782856116556E-004
                   239  2.328052760768084E-006
                   240  7.217595486208143E-006
                   241  4.289856645379580E-006
                   242  6.923816950263131E-005
                   243 -1.031533045496903E-004
                   244 -9.889720966610158E-009
                   245 -2.556451595206329E-008
                   246  1.496069045291070E-005
 Sym= __2_A__
 Ene=  0.000000000000000E+000
 Spin= Alpha
 Occup=    2.00000000000000     
                     1 -3.815374884082081E-005
                     2 -1.825014079127148E-004
                     3  2.205136019854820E-003
                     4  9.041640715035077E-005
                     5  1.258624805891237E-003
                     6 -1.869568734874387E-006
                     7 -7.988814348007413E-007
                     8  2.797742343122034E-003
                     9  4.476000905200454E-008
                    10  1.550275593715957E-008
                    11 -6.504727533978383E-005
                    12  2.724950462491244E-007
                    13  1.216332341691124E-007
                    14 -4.035741121498085E-004
                    15  4.457787300993502E-005
                    16 -2.669810273188720E-008
                    17 -5.318666382183965E-008
                    18  4.887997937339932E-005
                    19 -2.618489378239656E-005
                    20 -2.363754880530493E-004
                    21  1.609965815570170E-007
                    22  2.759589152180447E-007
                    23 -2.295193368117418E-004
                    24  1.395094104526775E-004
                    25  1.879547305984865E-004
                    26  2.750878119984406E-007
                    27  1.086562170188866E-007
                    28 -1.824648817355345E-005
                    29 -3.005690758856673E-005
                    30 -4.239493434955796E-009
                    31  3.172156405421070E-008
                    32   1.00105528383622     
                    33  9.166600661165402E-003
                    34  2.619186476135864E-003
                    35 -7.779654643748529E-003
                    36  2.621753577920907E-006
                    37  1.121609942517024E-006
                    38 -3.929962319626595E-003
                    39 -7.286050264850028E-007
                    40 -3.113907777290148E-007
                    41  1.091496058299019E-003
                    42 -2.850789658253970E-006
                    43 -1.295824583081420E-006
                    44  4.279579064672221E-003
                    45  4.342478330525922E-004
                    46 -7.753591470232085E-007
                    47 -8.731770414967673E-008
                    48 -4.174681907713530E-004
                    49  1.698627756330544E-005
                    50  4.939016380059268E-004
                    51  9.573290285296495E-009
                    52 -5.014259590466366E-007
                    53  8.776997859420390E-004
                    54 -2.177277557751392E-005
                    55  3.657130366949231E-004
                    56  3.948756407017509E-007
                    57  3.588783253097028E-007
                    58 -1.971750171490514E-004
                    59  1.278459653324264E-005
                    60 -1.654559730062958E-007
                    61  6.047352576100354E-008
                    62  8.014917303244348E-003
                    63 -1.999954445281366E-003
                    64 -2.719622444611355E-004
                    65  2.986879918343136E-003
                    66  7.111056181961935E-006
                    67  1.242160810501038E-004
                    68 -3.915188473010003E-005
                    69 -3.614768610194883E-005
                    70  5.706748113801355E-004
                    71  5.966428655212079E-005
                    72  6.821886680523215E-005
                    73 -2.020393923536219E-003
                    74  9.719797277862250E-005
                    75 -1.683479820919425E-005
                    76  1.526572152933906E-006
                    77  1.594303015260102E-005
                    78  2.925525391579676E-005
                    79  2.202590910715187E-006
                    80  7.580914421772565E-004
                    81  2.694436413719521E-005
                    82 -4.184354807630992E-004
                    83 -1.730831104597095E-005
                    84 -1.756991780566628E-005
                    85  6.821051437381278E-005
                    86 -8.734800497819282E-007
                    87  4.046284056976743E-005
                    88 -1.234485911828365E-004
                    89  1.178286230098611E-006
                    90  2.210685338811577E-006
                    91  4.967702763220731E-005
                    92  8.014891270240996E-003
                    93 -2.000037789057086E-003
                    94 -2.720052378478864E-004
                    95  2.987079461753186E-003
                    96 -7.058043248768641E-006
                    97 -1.241945016314882E-004
                    98 -3.925609388917035E-005
                    99  3.606659501881742E-005
                   100 -5.707076878166697E-004
                   101  5.951744770973139E-005
                   102 -6.835576357462633E-005
                   103  2.020465771672466E-003
                   104  9.810917583976149E-005
                   105 -1.684016894696959E-005
                   106 -1.447574401804697E-006
                   107 -1.594621406431767E-005
                   108  2.924655310633494E-005
                   109  2.224788427736235E-006
                   110  7.585059786293136E-004
                   111 -2.873210557010165E-005
                   112  4.177160938671171E-004
                   113 -1.701219468640976E-005
                   114 -1.811096464473917E-005
                   115  6.825075912902375E-005
                   116  8.365364154061020E-007
                   117 -4.024993435011127E-005
                   118 -1.235157860683239E-004
                   119  1.180014832919387E-006
                   120 -2.412991634410471E-006
                   121 -4.959079087528877E-005
                   122 -2.201766491823743E-004
                   123 -7.494765020604058E-004
                   124  2.251629557866295E-004
                   125 -1.282716585417130E-004
                   126 -5.285903957435697E-006
                   127 -2.338972321988380E-005
                   128 -2.410504382830801E-004
                   129  1.078251142002920E-005
                   130  1.156533739231904E-006
                   131  5.446892971067126E-004
                   132 -1.234306212998394E-005
                   133  3.123475413135572E-004
                   134  7.301644262619973E-004
                   135 -1.607584939720626E-005
                   136 -2.746498997973996E-006
                   137  5.073393855196886E-005
                   138  1.436838177726684E-005
                   139  1.890388807939821E-006
                   140 -2.961216056202418E-004
                   141  3.550201700125903E-006
                   142 -2.248016694154422E-004
                   143 -1.733095749465607E-005
                   144 -8.109017204881450E-006
                   145 -1.198246429019009E-006
                   146  3.044378754664695E-006
                   147 -3.720960910826949E-005
                   148 -3.764272888879948E-005
                   149 -2.876325013654767E-006
                   150  8.504613750693324E-007
                   151 -6.261229138733346E-006
                   152 -2.198899129632657E-004
                   153 -7.485245016594866E-004
                   154  2.252280046565636E-004
                   155 -1.292866209043677E-004
                   156  5.608254757655863E-006
                   157  2.351834509282803E-005
                   158 -2.410334431846707E-004
                   159 -1.151269812427853E-005
                   160 -1.422735599410767E-006