[Molden Format]
[Atoms] AU
  N     1    7    -4.4519150800    0.1645695100   -0.0000004400        
  C     2    6    -1.7695092000   -0.0145096000   -0.0000001700        
  C     3    6    -0.4270927200   -0.0061402300   -2.2691546100        
  C     4    6    -0.4270931100   -0.0061391100    2.2691544900        
  C     5    6     2.1889955900   -0.0004823800   -2.2566388900        
  C     6    6     2.1889952100   -0.0004812700    2.2566392100        
  C     7    6     3.5149715000    0.0022090000    0.0000002700        
  H     8    1    -5.4565260000   -1.0366484800   -2.1323980000        
  H     9    1    -5.3847684100   -0.9508462200    1.9800834000        
  H    10    1    -1.4305344500   -0.0005073500   -4.0318143700        
  H    11    1    -1.4305351200   -0.0005053700    4.0318140800        
  H    12    1     3.1914120400   -0.0010699000   -4.0209976100        
  H    13    1     3.1914113700   -0.0010679200    4.0209980900        
  H    14    1     5.5428332300    0.0050250700    0.0000004400        
[5D]
[7F]
[GTO]
  1  0
   s    12 1.00
  0.114200D+05  0.172695D-04
  0.171200D+04  0.134411D-03
  0.389300D+03  0.694561D-03
  0.110000D+03  0.278531D-02
  0.355700D+02  0.863457D-02
  0.125400D+02  0.199805D-01
  0.464400D+01  0.262908D-01
  0.129300D+01 -0.243845D-01
  0.511800D+00 -0.924934D-01
  0.178700D+00 -0.339683D+00
  0.246240D-01  0.345111D+00
  0.112530D-01  0.752750D+00
   s    10 1.00
  0.114200D+05  0.523000D-03
  0.171200D+04  0.404500D-02
  0.389300D+03  0.207750D-01
  0.110000D+03  0.807269D-01
  0.355700D+02  0.233074D+00
  0.125400D+02  0.433501D+00
  0.464400D+01  0.347472D+00
  0.129300D+01  0.412620D-01
  0.511800D+00 -0.850799D-02
  0.178700D+00  0.238400D-02
   s    10 1.00
  0.114200D+05 -0.115000D-03
  0.171200D+04 -0.895000D-03
  0.389300D+03 -0.462400D-02
  0.110000D+03 -0.185280D-01
  0.355700D+02 -0.573390D-01
  0.125400D+02 -0.132076D+00
  0.464400D+01 -0.172510D+00
  0.129300D+01  0.151814D+00
  0.511800D+00  0.599944D+00
  0.178700D+00  0.387462D+00
   s     1 1.00
  0.129300D+01  0.100000D+01
   s     1 1.00
  0.178700D+00  0.100000D+01
   p     5 1.00
  0.266300D+02  0.146700D-01
  0.594800D+01  0.917640D-01
  0.174200D+01  0.298683D+00
  0.555000D+00  0.498487D+00
  0.172500D+00  0.337023D+00
   p     1 1.00
  0.174200D+01  0.100000D+01
   p     1 1.00
  0.555000D+00  0.100000D+01
   d     1 1.00
  0.165400D+01  0.100000D+01
   d     1 1.00
  0.469000D+00  0.100000D+01
   f     1 1.00
  0.109300D+01  0.100000D+01
  
  2  0
   s    10 1.00
  0.823600D+04  0.531000D-03
  0.123500D+04  0.410800D-02
  0.280800D+03  0.210870D-01
  0.792700D+02  0.818530D-01
  0.255900D+02  0.234817D+00
  0.899700D+01  0.434401D+00
  0.331900D+01  0.346129D+00
  0.905900D+00  0.393780D-01
  0.364300D+00 -0.898300D-02
  0.128500D+00  0.238500D-02
   s    10 1.00
  0.823600D+04 -0.113000D-03
  0.123500D+04 -0.878000D-03
  0.280800D+03 -0.454000D-02
  0.792700D+02 -0.181330D-01
  0.255900D+02 -0.557600D-01
  0.899700D+01 -0.126895D+00
  0.331900D+01 -0.170352D+00
  0.905900D+00  0.140382D+00
  0.364300D+00  0.598684D+00
  0.128500D+00  0.395389D+00
   s     1 1.00
  0.905900D+00  0.100000D+01
   s     1 1.00
  0.364300D+00  0.100000D+01
   p     5 1.00
  0.187100D+02  0.140310D-01
  0.413300D+01  0.868660D-01
  0.120000D+01  0.290216D+00
  0.382700D+00  0.501008D+00
  0.120900D+00  0.343406D+00
   p     1 1.00
  0.382700D+00  0.100000D+01
   p     1 1.00
  0.120900D+00  0.100000D+01
   d     1 1.00
  0.109700D+01  0.100000D+01
   d     1 1.00
  0.318000D+00  0.100000D+01
   f     1 1.00
  0.761000D+00  0.100000D+01
  
  3  0
   s    10 1.00
  0.823600D+04  0.531000D-03
  0.123500D+04  0.410800D-02
  0.280800D+03  0.210870D-01
  0.792700D+02  0.818530D-01
  0.255900D+02  0.234817D+00
  0.899700D+01  0.434401D+00
  0.331900D+01  0.346129D+00
  0.905900D+00  0.393780D-01
  0.364300D+00 -0.898300D-02
  0.128500D+00  0.238500D-02
   s    10 1.00
  0.823600D+04 -0.113000D-03
  0.123500D+04 -0.878000D-03
  0.280800D+03 -0.454000D-02
  0.792700D+02 -0.181330D-01
  0.255900D+02 -0.557600D-01
  0.899700D+01 -0.126895D+00
  0.331900D+01 -0.170352D+00
  0.905900D+00  0.140382D+00
  0.364300D+00  0.598684D+00
  0.128500D+00  0.395389D+00
   s     1 1.00
  0.905900D+00  0.100000D+01
   s     1 1.00
  0.364300D+00  0.100000D+01
   p     5 1.00
  0.187100D+02  0.140310D-01
  0.413300D+01  0.868660D-01
  0.120000D+01  0.290216D+00
  0.382700D+00  0.501008D+00
  0.120900D+00  0.343406D+00
   p     1 1.00
  0.382700D+00  0.100000D+01
   p     1 1.00
  0.120900D+00  0.100000D+01
   d     1 1.00
  0.109700D+01  0.100000D+01
   d     1 1.00
  0.318000D+00  0.100000D+01
   f     1 1.00
  0.761000D+00  0.100000D+01
  
  4  0
   s    10 1.00
  0.823600D+04  0.531000D-03
  0.123500D+04  0.410800D-02
  0.280800D+03  0.210870D-01
  0.792700D+02  0.818530D-01
  0.255900D+02  0.234817D+00
  0.899700D+01  0.434401D+00
  0.331900D+01  0.346129D+00
  0.905900D+00  0.393780D-01
  0.364300D+00 -0.898300D-02
  0.128500D+00  0.238500D-02
   s    10 1.00
  0.823600D+04 -0.113000D-03
  0.123500D+04 -0.878000D-03
  0.280800D+03 -0.454000D-02
  0.792700D+02 -0.181330D-01
  0.255900D+02 -0.557600D-01
  0.899700D+01 -0.126895D+00
  0.331900D+01 -0.170352D+00
  0.905900D+00  0.140382D+00
  0.364300D+00  0.598684D+00
  0.128500D+00  0.395389D+00
   s     1 1.00
  0.905900D+00  0.100000D+01
   s     1 1.00
  0.364300D+00  0.100000D+01
   p     5 1.00
  0.187100D+02  0.140310D-01
  0.413300D+01  0.868660D-01
  0.120000D+01  0.290216D+00
  0.382700D+00  0.501008D+00
  0.120900D+00  0.343406D+00
   p     1 1.00
  0.382700D+00  0.100000D+01
   p     1 1.00
  0.120900D+00  0.100000D+01
   d     1 1.00
  0.109700D+01  0.100000D+01
   d     1 1.00
  0.318000D+00  0.100000D+01
   f     1 1.00
  0.761000D+00  0.100000D+01
  
  5  0
   s    10 1.00
  0.823600D+04  0.531000D-03
  0.123500D+04  0.410800D-02
  0.280800D+03  0.210870D-01
  0.792700D+02  0.818530D-01
  0.255900D+02  0.234817D+00
  0.899700D+01  0.434401D+00
  0.331900D+01  0.346129D+00
  0.905900D+00  0.393780D-01
  0.364300D+00 -0.898300D-02
  0.128500D+00  0.238500D-02
   s    10 1.00
  0.823600D+04 -0.113000D-03
  0.123500D+04 -0.878000D-03
  0.280800D+03 -0.454000D-02
  0.792700D+02 -0.181330D-01
  0.255900D+02 -0.557600D-01
  0.899700D+01 -0.126895D+00
  0.331900D+01 -0.170352D+00
  0.905900D+00  0.140382D+00
  0.364300D+00  0.598684D+00
  0.128500D+00  0.395389D+00
   s     1 1.00
  0.905900D+00  0.100000D+01
   s     1 1.00
  0.364300D+00  0.100000D+01
   p     5 1.00
  0.187100D+02  0.140310D-01
  0.413300D+01  0.868660D-01
  0.120000D+01  0.290216D+00
  0.382700D+00  0.501008D+00
  0.120900D+00  0.343406D+00
   p     1 1.00
  0.382700D+00  0.100000D+01
   p     1 1.00
  0.120900D+00  0.100000D+01
   d     1 1.00
  0.109700D+01  0.100000D+01
   d     1 1.00
  0.318000D+00  0.100000D+01
   f     1 1.00
  0.761000D+00  0.100000D+01
  
  6  0
   s    10 1.00
  0.823600D+04  0.531000D-03
  0.123500D+04  0.410800D-02
  0.280800D+03  0.210870D-01
  0.792700D+02  0.818530D-01
  0.255900D+02  0.234817D+00
  0.899700D+01  0.434401D+00
  0.331900D+01  0.346129D+00
  0.905900D+00  0.393780D-01
  0.364300D+00 -0.898300D-02
  0.128500D+00  0.238500D-02
   s    10 1.00
  0.823600D+04 -0.113000D-03
  0.123500D+04 -0.878000D-03
  0.280800D+03 -0.454000D-02
  0.792700D+02 -0.181330D-01
  0.255900D+02 -0.557600D-01
  0.899700D+01 -0.126895D+00
  0.331900D+01 -0.170352D+00
  0.905900D+00  0.140382D+00
  0.364300D+00  0.598684D+00
  0.128500D+00  0.395389D+00
   s     1 1.00
  0.905900D+00  0.100000D+01
   s     1 1.00
  0.364300D+00  0.100000D+01
   p     5 1.00
  0.187100D+02  0.140310D-01
  0.413300D+01  0.868660D-01
  0.120000D+01  0.290216D+00
  0.382700D+00  0.501008D+00
  0.120900D+00  0.343406D+00
   p     1 1.00
  0.382700D+00  0.100000D+01
   p     1 1.00
  0.120900D+00  0.100000D+01
   d     1 1.00
  0.109700D+01  0.100000D+01
   d     1 1.00
  0.318000D+00  0.100000D+01
   f     1 1.00
  0.761000D+00  0.100000D+01
  
  7  0
   s    10 1.00
  0.823600D+04  0.531000D-03
  0.123500D+04  0.410800D-02
  0.280800D+03  0.210870D-01
  0.792700D+02  0.818530D-01
  0.255900D+02  0.234817D+00
  0.899700D+01  0.434401D+00
  0.331900D+01  0.346129D+00
  0.905900D+00  0.393780D-01
  0.364300D+00 -0.898300D-02
  0.128500D+00  0.238500D-02
   s    10 1.00
  0.823600D+04 -0.113000D-03
  0.123500D+04 -0.878000D-03
  0.280800D+03 -0.454000D-02
  0.792700D+02 -0.181330D-01
  0.255900D+02 -0.557600D-01
  0.899700D+01 -0.126895D+00
  0.331900D+01 -0.170352D+00
  0.905900D+00  0.140382D+00
  0.364300D+00  0.598684D+00
  0.128500D+00  0.395389D+00
   s     1 1.00
  0.905900D+00  0.100000D+01
   s     1 1.00
  0.364300D+00  0.100000D+01
   p     5 1.00
  0.187100D+02  0.140310D-01
  0.413300D+01  0.868660D-01
  0.120000D+01  0.290216D+00
  0.382700D+00  0.501008D+00
  0.120900D+00  0.343406D+00
   p     1 1.00
  0.382700D+00  0.100000D+01
   p     1 1.00
  0.120900D+00  0.100000D+01
   d     1 1.00
  0.109700D+01  0.100000D+01
   d     1 1.00
  0.318000D+00  0.100000D+01
   f     1 1.00
  0.761000D+00  0.100000D+01
  
  8  0
   s     4 1.00
  0.130100D+02  0.196850D-01
  0.196200D+01  0.137977D+00
  0.444600D+00  0.478148D+00
  0.122000D+00  0.501240D+00
   s     1 1.00
  0.122000D+00  0.100000D+01
   p     1 1.00
  0.727000D+00  0.100000D+01
  
  9  0
   s     4 1.00
  0.130100D+02  0.196850D-01
  0.196200D+01  0.137977D+00
  0.444600D+00  0.478148D+00
  0.122000D+00  0.501240D+00
   s     1 1.00
  0.122000D+00  0.100000D+01
   p     1 1.00
  0.727000D+00  0.100000D+01
  
 10  0
   s     4 1.00
  0.130100D+02  0.196850D-01
  0.196200D+01  0.137977D+00
  0.444600D+00  0.478148D+00
  0.122000D+00  0.501240D+00
   s     1 1.00
  0.122000D+00  0.100000D+01
   p     1 1.00
  0.727000D+00  0.100000D+01
  
 11  0
   s     4 1.00
  0.130100D+02  0.196850D-01
  0.196200D+01  0.137977D+00
  0.444600D+00  0.478148D+00
  0.122000D+00  0.501240D+00
   s     1 1.00
  0.122000D+00  0.100000D+01
   p     1 1.00
  0.727000D+00  0.100000D+01
  
 12  0
   s     4 1.00
  0.130100D+02  0.196850D-01
  0.196200D+01  0.137977D+00
  0.444600D+00  0.478148D+00
  0.122000D+00  0.501240D+00
   s     1 1.00
  0.122000D+00  0.100000D+01
   p     1 1.00
  0.727000D+00  0.100000D+01
  
 13  0
   s     4 1.00
  0.130100D+02  0.196850D-01
  0.196200D+01  0.137977D+00
  0.444600D+00  0.478148D+00
  0.122000D+00  0.501240D+00
   s     1 1.00
  0.122000D+00  0.100000D+01
   p     1 1.00
  0.727000D+00  0.100000D+01
  
 14  0
   s     4 1.00
  0.130100D+02  0.196850D-01
  0.196200D+01  0.137977D+00
  0.444600D+00  0.478148D+00
  0.122000D+00  0.501240D+00
   s     1 1.00
  0.122000D+00  0.100000D+01
   p     1 1.00
  0.727000D+00  0.100000D+01
  
[MO]
 Sym= __1_A__
 Ene=   1.00000000000000     
 Spin= Alpha
 Occup=    1.00000000000000     
                     1  1.399864794809009E-004
                     2  0.998728555627025     
                     3 -2.147579814172424E-003
                     4  1.180722295000702E-003
                     5  6.625242602856694E-003
                     6  6.662781152452332E-003
                     7 -3.707869954277640E-003
                     8  7.586573844405385E-004
                     9 -1.073175855275075E-003
                    10  3.756123480343747E-004
                    11 -1.485210783224252E-004
                    12 -2.712156759721587E-003
                    13  2.627497086985596E-003
                    14 -5.776843403306230E-004
                    15 -1.015785428202088E-004
                    16 -8.072786939104919E-006
                    17  1.077762326822560E-005
                    18  5.954259246909902E-005
                    19 -1.868540482476629E-006
                    20 -2.424454009263772E-004
                    21  9.214384793703267E-005
                    22  3.128845562247242E-006
                    23  5.213847927939396E-005
                    24 -3.669424558296181E-004
                    25  5.413203389343038E-006
                    26 -7.527208311162782E-005
                    27  2.775663090095855E-006
                    28  3.249343485258140E-006
                    29 -2.425702432909806E-006
                    30 -4.619065628052404E-005
                    31 -5.091708262460569E-005
                    32 -3.099697609116690E-004
                    33  1.172499790922255E-004
                    34  2.906983650887855E-004
                    35 -2.512855449905460E-004
                    36 -2.143880917557557E-003
                    37 -9.903003512864490E-005
                    38 -4.478553146971625E-005
                    39 -1.333762048086836E-004
                    40 -3.208066227373298E-006
                    41  1.581804203019447E-004
                    42  5.397278008070931E-003
                    43  6.224464110021732E-004
                    44 -4.846326706987151E-004
                    45 -1.425706310626043E-004
                    46  1.079245194103785E-006
                    47  2.693030430210073E-006
                    48  1.236378204173323E-004
                    49  3.068998858721338E-005
                    50  1.805097425117415E-004
                    51  1.594191583060644E-004
                    52 -1.148032253929610E-005
                    53  1.247580549500070E-005
                    54 -2.932121775208272E-004
                    55 -1.465097516193232E-006
                    56 -6.023018601855619E-005
                    57  4.454883853097043E-006
                    58  4.216954991383060E-006
                    59 -9.339648622090307E-007
                    60 -4.260126351238133E-005
                    61  3.820140921994769E-005
                    62 -4.705012464271557E-004
                    63 -1.744115535581960E-003
                    64  2.442477826621277E-005
                    65  1.446667400987569E-003
                    66  9.191832388680329E-005
                    67 -1.513003521167777E-004
                    68 -2.984489566477438E-004
                    69  5.262407817134106E-004
                    70  5.300959296568008E-005
                    71  2.500171627050620E-004
                    72 -3.269884338908461E-004
                    73 -2.598473634208685E-004
                    74 -1.319682844850013E-003
                    75 -3.261946251403387E-005
                    76 -1.869146841973684E-005
                    77  1.367010833444913E-005
                    78  5.871418264486412E-005
                    79 -9.313222564563452E-006
                    80  1.447527031133898E-004
                    81 -1.595816158331337E-005
                    82 -3.236464891181435E-005
                    83 -2.739333330334534E-005
                    84  5.135234013459633E-005
                    85 -1.347310255617863E-005
                    86 -8.645293620813211E-005
                    87  1.406619661119544E-005
                    88 -4.006950514434632E-006
                    89  1.201256668808011E-005
                    90 -5.496843356122210E-005
                    91 -8.582404722515271E-006
                    92 -3.736308001512146E-004
                    93 -1.413048504400187E-003
                    94  9.207866577528752E-005
                    95  8.707382224327563E-004
                    96  1.188705959388447E-004
                    97 -1.583571018774932E-004
                    98  2.715759630853033E-004
                    99  4.499794932707881E-004
                   100  8.448109065946620E-005
                   101 -4.608126584461914E-005
                   102 -8.133957010059814E-004
                   103 -2.965197720159805E-004
                   104  1.107741414247016E-003
                   105 -3.378235997791467E-005
                   106  7.026219585868042E-006
                   107 -1.554684806896115E-005
                   108  5.049730753573466E-005
                   109 -1.187684472308056E-005
                   110  6.157046876608396E-005
                   111  3.685862847921775E-006
                   112  2.953581291670620E-005
                   113 -6.254635114082136E-005
                   114  5.430464032251711E-005
                   115  1.064532181566811E-005
                   116 -5.781555848083034E-005
                   117  1.452574198157328E-005
                   118  8.796289526190279E-006
                   119 -9.541884922654425E-006
                   120 -4.641085421080349E-005
                   121 -9.054086536705659E-006
                   122 -2.572593263308698E-004
                   123 -7.160817312484138E-004
                   124  7.927753103832900E-005
                   125  6.782956204991793E-004
                   126 -2.313928745384783E-004
                   127 -1.079474198151534E-004
                   128 -1.952103184530352E-005
                   129  2.942785726782677E-004
                   130 -2.367969058372460E-005
                   131  1.344705395967161E-004
                   132  1.147391280676805E-003
                   133  1.245277557306798E-004
                   134 -1.631596641129338E-004
                   135  1.775574526185658E-005
                   136 -3.520905517475399E-006
                   137 -5.324028432814822E-006
                   138 -7.245216763946276E-006
                   139  7.753661349772748E-006
                   140  1.053252943515875E-004
                   141  1.520741303489808E-004
                   142  7.727313863946713E-006
                   143 -2.450017917088956E-004
                   144 -5.244508805505386E-006
                   145 -1.096561583687980E-005
                   146 -2.135753910213909E-005
                   147  1.895680875832121E-006
                   148  8.983371136890072E-007
                   149 -2.035579309440869E-006
                   150 -5.373429338773905E-005
                   151 -3.214989051435019E-006
                   152 -2.344048750754540E-004
                   153 -6.488780950473713E-004
                   154  5.204275319257239E-005
                   155  6.500405071133711E-004
                   156 -2.110117465838425E-004
                   157 -9.952667445506228E-005
                   158  9.439473095695400E-006
                   159  1.828031978197415E-004
                   160 -3.167649676340960E-005
                   161 -7.590405171669460E-005
                   162  6.452454438801257E-004
                   163  1.456931135258438E-004
                   164  3.516807979962856E-004
                   165  9.707923273412219E-006
                   166  5.227840217303230E-006
                   167  5.514061717057755E-006
                   168 -5.449562773148910E-007
                   169  9.718678698045411E-006
                   170  6.336422977885112E-005
                   171 -1.049150563384076E-004
                   172 -9.779076142309757E-006
                   173 -1.828080648809317E-004
                   174 -7.298554082347909E-006
                   175  2.613980070829699E-006
                   176 -1.677337377800430E-005
                   177  2.696872485140092E-006
                   178 -6.373645215560278E-006
                   179  1.854971426884861E-006
                   180 -4.098586696875216E-005
                   181 -4.258421150502771E-006
                   182 -1.568253652436963E-004
                   183 -4.854030778164744E-004
                   184  4.334989692633911E-005
                   185  2.359564126014091E-004
                   186 -3.320184706118934E-005
                   187 -1.116303028750562E-004
                   188 -8.544191631285765E-006
                   189  1.219529391586912E-004
                   190  1.332352433685101E-005
                   191  4.570331499560451E-005
                   192 -4.094825322584809E-004
                   193 -8.624548958671702E-005
                   194  2.768440480331754E-004
                   195 -4.319934273206085E-006
                   196  1.199341408245814E-006
                   197  8.525664689441875E-007
                   198  1.685838309112127E-006
                   199 -9.131157628625226E-008
                   200 -1.098980117814005E-004
                   201 -4.153664883966842E-005
                   202 -2.538769786739949E-006
                   203  4.032193466683384E-005
                   204  1.771083093190303E-005
                   205  1.225824503593137E-006
                   206  7.953993368598338E-006
                   207  1.643240415400550E-006
                   208  3.062183344640924E-006
                   209  2.302035898287276E-007
                   210 -6.160896501836844E-006
                   211 -3.336869893107711E-006
                   212 -2.322541372271588E-004
                   213 -2.266029227106162E-004
                   214  6.126140554702494E-005
                   215  1.559053235835769E-004
                   216  1.053965444788117E-004
                   217 -2.504489636069440E-004
                   218 -4.292374586145642E-004
                   219  7.495116061591286E-005
                   220  1.693938369685230E-004
                   221 -1.636050821367299E-004
                   222 -1.952644683772303E-004
                   223 -6.527559877898548E-004
                   224 -5.950396477892110E-005
                   225  7.473108634625409E-006
                   226  4.339845491113326E-005
                   227 -1.471693661156489E-004
                   228 -6.528836599825841E-004
                   229 -4.726460164877780E-005
                   230  9.159231556694597E-006
                   231 -4.532810208258477E-005
                   232  1.488751611794923E-005
                   233 -5.130281080949975E-004
                   234 -3.863806901681491E-006
                   235 -2.083967444804040E-006
                   236  9.032992965991973E-007
                   237 -7.732785171490882E-006
                   238 -4.596896260356937E-004
                   239 -7.114801888822774E-007
                   240 -2.479673581409373E-006
                   241  2.596350436608458E-006
                   242 -3.433533443301794E-005
                   243  1.196017810777688E-004
                   244  3.144099009501341E-005
                   245  4.631620792031863E-007
                   246  4.236449525254278E-008
 Sym= __2_A__
 Ene=   2.00000000000000     
 Spin= Alpha
 Occup=    1.00000000000000     
                     1 -3.888276665329769E-005
                     2 -1.655832007763579E-004
                     3  2.491702555750373E-003
                     4  2.112582051049033E-005
                     5  1.155153767982517E-003
                     6  2.191728167019946E-003
                     7 -1.123111909672592E-004
                     8 -5.789229998479936E-005
                     9 -1.332366524169408E-004
                    10  8.758762102685749E-005
                    11 -7.475178720867996E-006
                    12 -1.669371171791511E-005
                    13  4.889346272452736E-005
                    14  9.873387408010259E-006
                    15 -7.343899940059844E-005
                    16  4.096753290495851E-007
                    17  1.320072444067282E-006
                    18  4.204639322198684E-005
                    19 -1.218491605831464E-005
                    20  1.112891758214374E-004
                    21  3.404796291325469E-006
                    22 -3.832387280012607E-006
                    23  1.091945471129108E-004
                    24 -1.077726440190270E-005
                    25 -1.300684339605437E-006
                    26  1.356849343929416E-004
                    27 -4.145667238053584E-005
                    28 -1.034062273171038E-006
                    29  7.644572294042661E-007
                    30  1.174227271952846E-004
                    31  2.753018850025581E-005
                    32   1.00091366743373     
                    33  8.936584340737620E-003
                    34  2.799027003217307E-003
                    35 -8.271863410869820E-003
                    36 -2.647170853748648E-003
                    37  4.967469515551872E-004
                    38  2.759208066893331E-006
                    39  7.612254641138096E-004
                    40 -2.484088460581926E-004
                    41 -8.821388889294964E-006
                    42  3.491485573196197E-003
                    43 -1.188667161236058E-004
                    44  8.712091226185135E-006
                    45  2.766039315594791E-004
                    46 -1.407891644030118E-006
                    47 -1.659690287598210E-006
                    48  4.296893061734510E-004
                    49 -2.880561994234427E-005
                    50 -1.051468770551459E-003
                    51  3.435206098514025E-006
                    52  2.266812782415598E-006
                    53 -9.914919653732764E-005
                    54  5.469130739146379E-005
                    55  4.721248094469558E-007
                    56  3.116607824316004E-004
                    57 -8.595299965386248E-006
                    58 -3.977074142735970E-007
                    59 -1.595958032657571E-006
                    60  9.986242945071564E-005
                    61  1.233844542093348E-005
                    62  1.387582493643187E-002
                    63 -1.930100091264798E-003
                    64 -3.077494278041797E-004
                    65  3.153771300377896E-003
                    66 -5.432838032725302E-005
                    67  3.058441190625686E-005
                    68  1.757513986314187E-004
                    69  2.042489125162018E-005
                    70 -2.582890301175206E-006
                    71  5.718232703002630E-004
                    72  1.416539993366050E-004
                    73 -2.227084207683924E-005
                    74 -1.825555268318468E-003
                    75 -1.518260381245386E-005
                    76  2.020313224991088E-005
                    77  5.345931404971102E-006
                    78 -3.189872532283848E-005
                    79 -2.811172265600551E-006
                    80 -3.938464864330622E-004
                    81 -4.331258535271887E-004
                    82 -7.966983189182244E-006
                    83  7.466861223935874E-004
                    84 -4.283370841320156E-006
                    85  4.925776669885975E-005
                    86  1.147263816374421E-004
                    87 -1.024071130970717E-006
                    88 -1.669996058063171E-005
                    89 -6.370799358153468E-006
                    90 -3.067797698075558E-005
                    91  3.844682198465939E-006
                    92  1.447085090611017E-002
                    93 -1.928555778740545E-003
                    94 -3.061827473237386E-004
                    95  3.152841838496319E-003
                    96 -5.475921154417561E-005
                    97  3.020280667572682E-005
                    98 -1.703701167267694E-004
                    99  1.792651855377172E-005
                   100 -3.360782432979434E-006
                   101 -5.742163552106597E-004
                   102  1.452598649377680E-004
                   103 -2.219433358238048E-005
                   104  1.824199375061147E-003
                   105 -1.477424919862338E-005
                   106 -2.033755266472739E-005
                   107 -5.473455122883131E-006
                   108 -3.178707533994354E-005
                   109 -2.838122831583822E-006
                   110 -3.930820927345581E-004
                   111  4.367016575520385E-004
                   112  8.907381761407896E-006
                   113  7.473856060217580E-004
                   114 -3.372764066306754E-006
                   115 -4.899898512209021E-005
                   116  1.143098616061378E-004
                   117 -7.325016456703109E-007
                   118  1.610407127025188E-005
                   119  6.207665036992024E-006
                   120 -3.046483720208452E-005
                   121  3.720967476106494E-006
                   122 -8.327392264415265E-005
                   123 -6.704934501783335E-004
                   124  2.495334006280688E-004
                   125 -2.944006815992899E-004
                   126 -2.632801867662841E-004
                   127 -1.011646655769192E-005
                   128 -3.218375123882967E-005
                   129  6.038657996975776E-004
                   130  8.297060270182551E-007
                   131  1.823910874978159E-005
                   132  6.018527277999736E-004
                   133  1.157137504435229E-005
                   134  3.172553259917132E-004
                   135 -8.985395700032778E-007
                   136  4.252675123785556E-005
                   137 -3.453224959959193E-008
                   138 -3.216207769670902E-005
                   139 -1.521902349407521E-007
                   140  1.852671058018698E-004
                   141 -2.297294388317896E-004
                   142  1.007252005096501E-006
                   143 -2.607070909316990E-004
                   144 -3.912845717022970E-006
                   145 -2.007103890877832E-005
                   146  1.709657109793777E-005
                   147 -2.875340028649885E-007
                   148 -1.613922017972933E-005
                   149 -1.976235119787405E-006
                   150 -2.666149477115602E-005
                   151 -7.973115628689801E-007
                   152 -6.957461033952112E-005
                   153 -6.726150347744198E-004
                   154  2.494421582519877E-004
                   155 -2.924106365584944E-004
                   156 -2.612619108209365E-004
                   157 -9.890708952359467E-006
                   158  3.241798286120813E-005
                   159  6.025510755088112E-004
                   160  7.352923218204234E-007