[Molden Format]
[Atoms] AU
  N     1    7    -4.4519150800    0.1645695100   -0.0000004400        
  C     2    6    -1.7695092000   -0.0145096000   -0.0000001700        
  C     3    6    -0.4270927200   -0.0061402300   -2.2691546100        
  C     4    6    -0.4270931100   -0.0061391100    2.2691544900        
  C     5    6     2.1889955900   -0.0004823800   -2.2566388900        
  C     6    6     2.1889952100   -0.0004812700    2.2566392100        
  C     7    6     3.5149715000    0.0022090000    0.0000002700        
  H     8    1    -5.4565260000   -1.0366484800   -2.1323980000        
  H     9    1    -5.3847684100   -0.9508462200    1.9800834000        
  H    10    1    -1.4305344500   -0.0005073500   -4.0318143700        
  H    11    1    -1.4305351200   -0.0005053700    4.0318140800        
  H    12    1     3.1914120400   -0.0010699000   -4.0209976100        
  H    13    1     3.1914113700   -0.0010679200    4.0209980900        
  H    14    1     5.5428332300    0.0050250700    0.0000004400        
[5D]
[7F]
[GTO]
  1  0
   s    12 1.00
  0.114200D+05  0.172695D-04
  0.171200D+04  0.134411D-03
  0.389300D+03  0.694561D-03
  0.110000D+03  0.278531D-02
  0.355700D+02  0.863457D-02
  0.125400D+02  0.199805D-01
  0.464400D+01  0.262908D-01
  0.129300D+01 -0.243845D-01
  0.511800D+00 -0.924934D-01
  0.178700D+00 -0.339683D+00
  0.246240D-01  0.345111D+00
  0.112530D-01  0.752750D+00
   s    10 1.00
  0.114200D+05  0.523000D-03
  0.171200D+04  0.404500D-02
  0.389300D+03  0.207750D-01
  0.110000D+03  0.807269D-01
  0.355700D+02  0.233074D+00
  0.125400D+02  0.433501D+00
  0.464400D+01  0.347472D+00
  0.129300D+01  0.412620D-01
  0.511800D+00 -0.850799D-02
  0.178700D+00  0.238400D-02
   s    10 1.00
  0.114200D+05 -0.115000D-03
  0.171200D+04 -0.895000D-03
  0.389300D+03 -0.462400D-02
  0.110000D+03 -0.185280D-01
  0.355700D+02 -0.573390D-01
  0.125400D+02 -0.132076D+00
  0.464400D+01 -0.172510D+00
  0.129300D+01  0.151814D+00
  0.511800D+00  0.599944D+00
  0.178700D+00  0.387462D+00
   s     1 1.00
  0.129300D+01  0.100000D+01
   s     1 1.00
  0.178700D+00  0.100000D+01
   p     5 1.00
  0.266300D+02  0.146700D-01
  0.594800D+01  0.917640D-01
  0.174200D+01  0.298683D+00
  0.555000D+00  0.498487D+00
  0.172500D+00  0.337023D+00
   p     1 1.00
  0.174200D+01  0.100000D+01
   p     1 1.00
  0.555000D+00  0.100000D+01
   d     1 1.00
  0.165400D+01  0.100000D+01
   d     1 1.00
  0.469000D+00  0.100000D+01
   f     1 1.00
  0.109300D+01  0.100000D+01
  
  2  0
   s    10 1.00
  0.823600D+04  0.531000D-03
  0.123500D+04  0.410800D-02
  0.280800D+03  0.210870D-01
  0.792700D+02  0.818530D-01
  0.255900D+02  0.234817D+00
  0.899700D+01  0.434401D+00
  0.331900D+01  0.346129D+00
  0.905900D+00  0.393780D-01
  0.364300D+00 -0.898300D-02
  0.128500D+00  0.238500D-02
   s    10 1.00
  0.823600D+04 -0.113000D-03
  0.123500D+04 -0.878000D-03
  0.280800D+03 -0.454000D-02
  0.792700D+02 -0.181330D-01
  0.255900D+02 -0.557600D-01
  0.899700D+01 -0.126895D+00
  0.331900D+01 -0.170352D+00
  0.905900D+00  0.140382D+00
  0.364300D+00  0.598684D+00
  0.128500D+00  0.395389D+00
   s     1 1.00
  0.905900D+00  0.100000D+01
   s     1 1.00
  0.364300D+00  0.100000D+01
   p     5 1.00
  0.187100D+02  0.140310D-01
  0.413300D+01  0.868660D-01
  0.120000D+01  0.290216D+00
  0.382700D+00  0.501008D+00
  0.120900D+00  0.343406D+00
   p     1 1.00
  0.382700D+00  0.100000D+01
   p     1 1.00
  0.120900D+00  0.100000D+01
   d     1 1.00
  0.109700D+01  0.100000D+01
   d     1 1.00
  0.318000D+00  0.100000D+01
   f     1 1.00
  0.761000D+00  0.100000D+01
  
  3  0
   s    10 1.00
  0.823600D+04  0.531000D-03
  0.123500D+04  0.410800D-02
  0.280800D+03  0.210870D-01
  0.792700D+02  0.818530D-01
  0.255900D+02  0.234817D+00
  0.899700D+01  0.434401D+00
  0.331900D+01  0.346129D+00
  0.905900D+00  0.393780D-01
  0.364300D+00 -0.898300D-02
  0.128500D+00  0.238500D-02
   s    10 1.00
  0.823600D+04 -0.113000D-03
  0.123500D+04 -0.878000D-03
  0.280800D+03 -0.454000D-02
  0.792700D+02 -0.181330D-01
  0.255900D+02 -0.557600D-01
  0.899700D+01 -0.126895D+00
  0.331900D+01 -0.170352D+00
  0.905900D+00  0.140382D+00
  0.364300D+00  0.598684D+00
  0.128500D+00  0.395389D+00
   s     1 1.00
  0.905900D+00  0.100000D+01
   s     1 1.00
  0.364300D+00  0.100000D+01
   p     5 1.00
  0.187100D+02  0.140310D-01
  0.413300D+01  0.868660D-01
  0.120000D+01  0.290216D+00
  0.382700D+00  0.501008D+00
  0.120900D+00  0.343406D+00
   p     1 1.00
  0.382700D+00  0.100000D+01
   p     1 1.00
  0.120900D+00  0.100000D+01
   d     1 1.00
  0.109700D+01  0.100000D+01
   d     1 1.00
  0.318000D+00  0.100000D+01
   f     1 1.00
  0.761000D+00  0.100000D+01
  
  4  0
   s    10 1.00
  0.823600D+04  0.531000D-03
  0.123500D+04  0.410800D-02
  0.280800D+03  0.210870D-01
  0.792700D+02  0.818530D-01
  0.255900D+02  0.234817D+00
  0.899700D+01  0.434401D+00
  0.331900D+01  0.346129D+00
  0.905900D+00  0.393780D-01
  0.364300D+00 -0.898300D-02
  0.128500D+00  0.238500D-02
   s    10 1.00
  0.823600D+04 -0.113000D-03
  0.123500D+04 -0.878000D-03
  0.280800D+03 -0.454000D-02
  0.792700D+02 -0.181330D-01
  0.255900D+02 -0.557600D-01
  0.899700D+01 -0.126895D+00
  0.331900D+01 -0.170352D+00
  0.905900D+00  0.140382D+00
  0.364300D+00  0.598684D+00
  0.128500D+00  0.395389D+00
   s     1 1.00
  0.905900D+00  0.100000D+01
   s     1 1.00
  0.364300D+00  0.100000D+01
   p     5 1.00
  0.187100D+02  0.140310D-01
  0.413300D+01  0.868660D-01
  0.120000D+01  0.290216D+00
  0.382700D+00  0.501008D+00
  0.120900D+00  0.343406D+00
   p     1 1.00
  0.382700D+00  0.100000D+01
   p     1 1.00
  0.120900D+00  0.100000D+01
   d     1 1.00
  0.109700D+01  0.100000D+01
   d     1 1.00
  0.318000D+00  0.100000D+01
   f     1 1.00
  0.761000D+00  0.100000D+01
  
  5  0
   s    10 1.00
  0.823600D+04  0.531000D-03
  0.123500D+04  0.410800D-02
  0.280800D+03  0.210870D-01
  0.792700D+02  0.818530D-01
  0.255900D+02  0.234817D+00
  0.899700D+01  0.434401D+00
  0.331900D+01  0.346129D+00
  0.905900D+00  0.393780D-01
  0.364300D+00 -0.898300D-02
  0.128500D+00  0.238500D-02
   s    10 1.00
  0.823600D+04 -0.113000D-03
  0.123500D+04 -0.878000D-03
  0.280800D+03 -0.454000D-02
  0.792700D+02 -0.181330D-01
  0.255900D+02 -0.557600D-01
  0.899700D+01 -0.126895D+00
  0.331900D+01 -0.170352D+00
  0.905900D+00  0.140382D+00
  0.364300D+00  0.598684D+00
  0.128500D+00  0.395389D+00
   s     1 1.00
  0.905900D+00  0.100000D+01
   s     1 1.00
  0.364300D+00  0.100000D+01
   p     5 1.00
  0.187100D+02  0.140310D-01
  0.413300D+01  0.868660D-01
  0.120000D+01  0.290216D+00
  0.382700D+00  0.501008D+00
  0.120900D+00  0.343406D+00
   p     1 1.00
  0.382700D+00  0.100000D+01
   p     1 1.00
  0.120900D+00  0.100000D+01
   d     1 1.00
  0.109700D+01  0.100000D+01
   d     1 1.00
  0.318000D+00  0.100000D+01
   f     1 1.00
  0.761000D+00  0.100000D+01
  
  6  0
   s    10 1.00
  0.823600D+04  0.531000D-03
  0.123500D+04  0.410800D-02
  0.280800D+03  0.210870D-01
  0.792700D+02  0.818530D-01
  0.255900D+02  0.234817D+00
  0.899700D+01  0.434401D+00
  0.331900D+01  0.346129D+00
  0.905900D+00  0.393780D-01
  0.364300D+00 -0.898300D-02
  0.128500D+00  0.238500D-02
   s    10 1.00
  0.823600D+04 -0.113000D-03
  0.123500D+04 -0.878000D-03
  0.280800D+03 -0.454000D-02
  0.792700D+02 -0.181330D-01
  0.255900D+02 -0.557600D-01
  0.899700D+01 -0.126895D+00
  0.331900D+01 -0.170352D+00
  0.905900D+00  0.140382D+00
  0.364300D+00  0.598684D+00
  0.128500D+00  0.395389D+00
   s     1 1.00
  0.905900D+00  0.100000D+01
   s     1 1.00
  0.364300D+00  0.100000D+01
   p     5 1.00
  0.187100D+02  0.140310D-01
  0.413300D+01  0.868660D-01
  0.120000D+01  0.290216D+00
  0.382700D+00  0.501008D+00
  0.120900D+00  0.343406D+00
   p     1 1.00
  0.382700D+00  0.100000D+01
   p     1 1.00
  0.120900D+00  0.100000D+01
   d     1 1.00
  0.109700D+01  0.100000D+01
   d     1 1.00
  0.318000D+00  0.100000D+01
   f     1 1.00
  0.761000D+00  0.100000D+01
  
  7  0
   s    10 1.00
  0.823600D+04  0.531000D-03
  0.123500D+04  0.410800D-02
  0.280800D+03  0.210870D-01
  0.792700D+02  0.818530D-01
  0.255900D+02  0.234817D+00
  0.899700D+01  0.434401D+00
  0.331900D+01  0.346129D+00
  0.905900D+00  0.393780D-01
  0.364300D+00 -0.898300D-02
  0.128500D+00  0.238500D-02
   s    10 1.00
  0.823600D+04 -0.113000D-03
  0.123500D+04 -0.878000D-03
  0.280800D+03 -0.454000D-02
  0.792700D+02 -0.181330D-01
  0.255900D+02 -0.557600D-01
  0.899700D+01 -0.126895D+00
  0.331900D+01 -0.170352D+00
  0.905900D+00  0.140382D+00
  0.364300D+00  0.598684D+00
  0.128500D+00  0.395389D+00
   s     1 1.00
  0.905900D+00  0.100000D+01
   s     1 1.00
  0.364300D+00  0.100000D+01
   p     5 1.00
  0.187100D+02  0.140310D-01
  0.413300D+01  0.868660D-01
  0.120000D+01  0.290216D+00
  0.382700D+00  0.501008D+00
  0.120900D+00  0.343406D+00
   p     1 1.00
  0.382700D+00  0.100000D+01
   p     1 1.00
  0.120900D+00  0.100000D+01
   d     1 1.00
  0.109700D+01  0.100000D+01
   d     1 1.00
  0.318000D+00  0.100000D+01
   f     1 1.00
  0.761000D+00  0.100000D+01
  
  8  0
   s     4 1.00
  0.130100D+02  0.196850D-01
  0.196200D+01  0.137977D+00
  0.444600D+00  0.478148D+00
  0.122000D+00  0.501240D+00
   s     1 1.00
  0.122000D+00  0.100000D+01
   p     1 1.00
  0.727000D+00  0.100000D+01
  
  9  0
   s     4 1.00
  0.130100D+02  0.196850D-01
  0.196200D+01  0.137977D+00
  0.444600D+00  0.478148D+00
  0.122000D+00  0.501240D+00
   s     1 1.00
  0.122000D+00  0.100000D+01
   p     1 1.00
  0.727000D+00  0.100000D+01
  
 10  0
   s     4 1.00
  0.130100D+02  0.196850D-01
  0.196200D+01  0.137977D+00
  0.444600D+00  0.478148D+00
  0.122000D+00  0.501240D+00
   s     1 1.00
  0.122000D+00  0.100000D+01
   p     1 1.00
  0.727000D+00  0.100000D+01
  
 11  0
   s     4 1.00
  0.130100D+02  0.196850D-01
  0.196200D+01  0.137977D+00
  0.444600D+00  0.478148D+00
  0.122000D+00  0.501240D+00
   s     1 1.00
  0.122000D+00  0.100000D+01
   p     1 1.00
  0.727000D+00  0.100000D+01
  
 12  0
   s     4 1.00
  0.130100D+02  0.196850D-01
  0.196200D+01  0.137977D+00
  0.444600D+00  0.478148D+00
  0.122000D+00  0.501240D+00
   s     1 1.00
  0.122000D+00  0.100000D+01
   p     1 1.00
  0.727000D+00  0.100000D+01
  
 13  0
   s     4 1.00
  0.130100D+02  0.196850D-01
  0.196200D+01  0.137977D+00
  0.444600D+00  0.478148D+00
  0.122000D+00  0.501240D+00
   s     1 1.00
  0.122000D+00  0.100000D+01
   p     1 1.00
  0.727000D+00  0.100000D+01
  
 14  0
   s     4 1.00
  0.130100D+02  0.196850D-01
  0.196200D+01  0.137977D+00
  0.444600D+00  0.478148D+00
  0.122000D+00  0.501240D+00
   s     1 1.00
  0.122000D+00  0.100000D+01
   p     1 1.00
  0.727000D+00  0.100000D+01
  
[MO]
 Sym= __1_a__
 Ene=  0.000000000000000E+000
 Spin= Alpha
 Occup=    2.00000000000000     
                     1  1.399864794809010E-004
                     2  0.998728555627025     
                     3 -2.147579814172420E-003
                     4  1.180722295000700E-003
                     5  6.625242602856690E-003
                     6  6.662781152452330E-003
                     7 -3.707869954277640E-003
                     8  7.586573844405380E-004
                     9 -1.073175855275070E-003
                    10  3.756123480343750E-004
                    11 -1.485210783224250E-004
                    12 -2.712156759721590E-003
                    13  2.627497086985600E-003
                    14 -5.776843403306230E-004
                    15 -1.015785428202090E-004
                    16 -8.072786939104920E-006
                    17  1.077762326822560E-005
                    18  5.954259246909900E-005
                    19 -1.868540482476630E-006
                    20 -2.424454009263771E-004
                    21  9.214384793703270E-005
                    22  3.128845562247240E-006
                    23  5.213847927939400E-005
                    24 -3.669424558296180E-004
                    25  5.413203389343030E-006
                    26 -7.527208311162775E-005
                    27  2.775663090095857E-006
                    28  3.249343485258140E-006
                    29 -2.425702432909810E-006
                    30 -4.619065628052412E-005
                    31 -5.091708262460584E-005
                    32 -3.099697609116690E-004
                    33  1.172499790922250E-004
                    34  2.906983650887860E-004
                    35 -2.512855449905460E-004
                    36 -2.143880917557560E-003
                    37 -9.903003512864490E-005
                    38 -4.478553146971630E-005
                    39 -1.333762048086840E-004
                    40 -3.208066227373300E-006
                    41  1.581804203019450E-004
                    42  5.397278008070930E-003
                    43  6.224464110021730E-004
                    44 -4.846326706987150E-004
                    45 -1.425706310626042E-004
                    46  1.079245194103790E-006
                    47  2.693030430210070E-006
                    48  1.236378204173322E-004
                    49  3.068998858721340E-005
                    50  1.805097425117415E-004
                    51  1.594191583060640E-004
                    52 -1.148032253929610E-005
                    53  1.247580549500070E-005
                    54 -2.932121775208270E-004
                    55 -1.465097516193232E-006
                    56 -6.023018601855622E-005
                    57  4.454883853097046E-006
                    58  4.216954991383060E-006
                    59 -9.339648622090310E-007
                    60 -4.260126351238128E-005
                    61  3.820140921994769E-005
                    62 -4.705012464271560E-004
                    63 -1.744115535581960E-003
                    64  2.442477826621280E-005
                    65  1.446667400987570E-003
                    66  9.191832388680331E-005
                    67 -1.513003521167780E-004
                    68 -2.984489566477440E-004
                    69  5.262407817134110E-004
                    70  5.300959296568010E-005
                    71  2.500171627050620E-004
                    72 -3.269884338908460E-004
                    73 -2.598473634208680E-004
                    74 -1.319682844850010E-003
                    75 -3.261946251403386E-005
                    76 -1.869146841973680E-005
                    77  1.367010833444910E-005
                    78  5.871418264486420E-005
                    79 -9.313222564563451E-006
                    80  1.447527031133898E-004
                    81 -1.595816158331340E-005
                    82 -3.236464891181430E-005
                    83 -2.739333330334540E-005
                    84  5.135234013459630E-005
                    85 -1.347310255617863E-005
                    86 -8.645293620813205E-005
                    87  1.406619661119547E-005
                    88 -4.006950514434640E-006
                    89  1.201256668808010E-005
                    90 -5.496843356122205E-005
                    91 -8.582404722515260E-006
                    92 -3.736308001512150E-004
                    93 -1.413048504400190E-003
                    94  9.207866577528750E-005
                    95  8.707382224327560E-004
                    96  1.188705959388450E-004
                    97 -1.583571018774930E-004
                    98  2.715759630853030E-004
                    99  4.499794932707880E-004
                   100  8.448109065946620E-005
                   101 -4.608126584461910E-005
                   102 -8.133957010059810E-004
                   103 -2.965197720159810E-004
                   104  1.107741414247020E-003
                   105 -3.378235997791467E-005
                   106  7.026219585868040E-006
                   107 -1.554684806896110E-005
                   108  5.049730753573460E-005
                   109 -1.187684472308060E-005
                   110  6.157046876608391E-005
                   111  3.685862847921770E-006
                   112  2.953581291670620E-005
                   113 -6.254635114082140E-005
                   114  5.430464032251710E-005
                   115  1.064532181566811E-005
                   116 -5.781555848083032E-005
                   117  1.452574198157330E-005
                   118  8.796289526190279E-006
                   119 -9.541884922654420E-006
                   120 -4.641085421080357E-005
                   121 -9.054086536705649E-006
                   122 -2.572593263308700E-004
                   123 -7.160817312484140E-004
                   124  7.927753103832900E-005
                   125  6.782956204991790E-004
                   126 -2.313928745384780E-004
                   127 -1.079474198151530E-004
                   128 -1.952103184530350E-005
                   129  2.942785726782680E-004
                   130 -2.367969058372460E-005
                   131  1.344705395967160E-004
                   132  1.147391280676800E-003
                   133  1.245277557306800E-004
                   134 -1.631596641129340E-004
                   135  1.775574526185658E-005
                   136 -3.520905517475400E-006
                   137 -5.324028432814820E-006
                   138 -7.245216763946280E-006
                   139  7.753661349772750E-006
                   140  1.053252943515875E-004
                   141  1.520741303489810E-004
                   142  7.727313863946710E-006
                   143 -2.450017917088960E-004
                   144 -5.244508805505390E-006
                   145 -1.096561583687981E-005
                   146 -2.135753910213906E-005
                   147  1.895680875832120E-006
                   148  8.983371136890080E-007
                   149 -2.035579309440870E-006
                   150 -5.373429338773907E-005
                   151 -3.214989051435021E-006
                   152 -2.344048750754540E-004
                   153 -6.488780950473710E-004
                   154  5.204275319257240E-005
                   155  6.500405071133710E-004
                   156 -2.110117465838430E-004
                   157 -9.952667445506230E-005
                   158  9.439473095695400E-006
                   159  1.828031978197420E-004
                   160 -3.167649676340960E-005
                   161 -7.590405171669460E-005
                   162  6.452454438801260E-004
                   163  1.456931135258440E-004
                   164  3.516807979962860E-004
                   165  9.707923273412222E-006
                   166  5.227840217303230E-006
                   167  5.514061717057760E-006
                   168 -5.449562773148920E-007
                   169  9.718678698045411E-006
                   170  6.336422977885112E-005
                   171 -1.049150563384080E-004
                   172 -9.779076142309760E-006
                   173 -1.828080648809316E-004
                   174 -7.298554082347910E-006
                   175  2.613980070829697E-006
                   176 -1.677337377800427E-005
                   177  2.696872485140094E-006
                   178 -6.373645215560280E-006
                   179  1.854971426884860E-006
                   180 -4.098586696875221E-005
                   181 -4.258421150502773E-006
                   182 -1.568253652436960E-004
                   183 -4.854030778164740E-004
                   184  4.334989692633910E-005
                   185  2.359564126014090E-004
                   186 -3.320184706118930E-005
                   187 -1.116303028750560E-004
                   188 -8.544191631285770E-006
                   189  1.219529391586910E-004
                   190  1.332352433685100E-005
                   191  4.570331499560450E-005
                   192 -4.094825322584810E-004
                   193 -8.624548958671700E-005
                   194  2.768440480331750E-004
                   195 -4.319934273206078E-006
                   196  1.199341408245810E-006
                   197  8.525664689441880E-007
                   198  1.685838309112128E-006
                   199 -9.131157628625230E-008
                   200 -1.098980117814004E-004
                   201 -4.153664883966840E-005
                   202 -2.538769786739950E-006
                   203  4.032193466683380E-005
                   204  1.771083093190300E-005
                   205  1.225824503593136E-006
                   206  7.953993368598350E-006
                   207  1.643240415400548E-006
                   208  3.062183344640920E-006
                   209  2.302035898287280E-007
                   210 -6.160896501836848E-006
                   211 -3.336869893107710E-006
                   212 -2.322541372271590E-004
                   213 -2.266029227106160E-004
                   214  6.126140554702490E-005
                   215  1.559053235835770E-004
                   216  1.053965444788120E-004
                   217 -2.504489636069440E-004
                   218 -4.292374586145640E-004
                   219  7.495116061591290E-005
                   220  1.693938369685230E-004
                   221 -1.636050821367300E-004
                   222 -1.952644683772300E-004
                   223 -6.527559877898550E-004
                   224 -5.950396477892110E-005
                   225  7.473108634625410E-006
                   226  4.339845491113330E-005
                   227 -1.471693661156490E-004
                   228 -6.528836599825840E-004
                   229 -4.726460164877780E-005
                   230  9.159231556694600E-006
                   231 -4.532810208258480E-005
                   232  1.488751611794920E-005
                   233 -5.130281080949970E-004
                   234 -3.863806901681490E-006
                   235 -2.083967444804040E-006
                   236  9.032992965991970E-007
                   237 -7.732785171490881E-006
                   238 -4.596896260356940E-004
                   239 -7.114801888822770E-007
                   240 -2.479673581409370E-006
                   241  2.596350436608460E-006
                   242 -3.433533443301790E-005
                   243  1.196017810777690E-004
                   244  3.144099009501340E-005
                   245  4.631620792031860E-007
                   246  4.236449525254280E-008
 Sym= __2_a__
 Ene=  0.000000000000000E+000
 Spin= Alpha
 Occup=    2.00000000000000     
                     1 -3.888276665329770E-005
                     2 -1.655832007763580E-004
                     3  2.491702555750370E-003
                     4  2.112582051049030E-005
                     5  1.155153767982520E-003
                     6  2.191728167019950E-003
                     7 -1.123111909672590E-004
                     8 -5.789229998479940E-005
                     9 -1.332366524169410E-004
                    10  8.758762102685750E-005
                    11 -7.475178720868000E-006
                    12 -1.669371171791510E-005
                    13  4.889346272452740E-005
                    14  9.873387408010260E-006
                    15 -7.343899940059830E-005
                    16  4.096753290495850E-007
                    17  1.320072444067280E-006
                    18  4.204639322198680E-005
                    19 -1.218491605831460E-005
                    20  1.112891758214373E-004
                    21  3.404796291325470E-006
                    22 -3.832387280012610E-006
                    23  1.091945471129108E-004
                    24 -1.077726440190270E-005
                    25 -1.300684339605437E-006
                    26  1.356849343929418E-004
                    27 -4.145667238053585E-005
                    28 -1.034062273171038E-006
                    29  7.644572294042660E-007
                    30  1.174227271952847E-004
                    31  2.753018850025582E-005
                    32   1.00091366743373     
                    33  8.936584340737620E-003
                    34  2.799027003217310E-003
                    35 -8.271863410869820E-003
                    36 -2.647170853748650E-003
                    37  4.967469515551870E-004
                    38  2.759208066893330E-006
                    39  7.612254641138100E-004
                    40 -2.484088460581930E-004
                    41 -8.821388889294960E-006
                    42  3.491485573196200E-003
                    43 -1.188667161236060E-004
                    44  8.712091226185140E-006
                    45  2.766039315594793E-004
                    46 -1.407891644030120E-006
                    47 -1.659690287598210E-006
                    48  4.296893061734500E-004
                    49 -2.880561994234430E-005
                    50 -1.051468770551459E-003
                    51  3.435206098514020E-006
                    52  2.266812782415600E-006
                    53 -9.914919653732760E-005
                    54  5.469130739146380E-005
                    55  4.721248094469558E-007
                    56  3.116607824316005E-004
                    57 -8.595299965386255E-006
                    58 -3.977074142735980E-007
                    59 -1.595958032657570E-006
                    60  9.986242945071568E-005
                    61  1.233844542093350E-005
                    62  1.387582493643190E-002
                    63 -1.930100091264800E-003
                    64 -3.077494278041800E-004
                    65  3.153771300377900E-003
                    66 -5.432838032725300E-005
                    67  3.058441190625690E-005
                    68  1.757513986314190E-004
                    69  2.042489125162020E-005
                    70 -2.582890301175210E-006
                    71  5.718232703002630E-004
                    72  1.416539993366050E-004
                    73 -2.227084207683920E-005
                    74 -1.825555268318470E-003
                    75 -1.518260381245387E-005
                    76  2.020313224991090E-005
                    77  5.345931404971100E-006
                    78 -3.189872532283840E-005
                    79 -2.811172265600550E-006
                    80 -3.938464864330608E-004
                    81 -4.331258535271890E-004
                    82 -7.966983189182239E-006
                    83  7.466861223935880E-004
                    84 -4.283370841320160E-006
                    85  4.925776669885972E-005
                    86  1.147263816374424E-004
                    87 -1.024071130970715E-006
                    88 -1.669996058063172E-005
                    89 -6.370799358153470E-006
                    90 -3.067797698075556E-005
                    91  3.844682198465938E-006
                    92  1.447085090611020E-002
                    93 -1.928555778740540E-003
                    94 -3.061827473237390E-004
                    95  3.152841838496320E-003
                    96 -5.475921154417560E-005
                    97  3.020280667572680E-005
                    98 -1.703701167267690E-004
                    99  1.792651855377170E-005
                   100 -3.360782432979430E-006
                   101 -5.742163552106600E-004
                   102  1.452598649377680E-004
                   103 -2.219433358238050E-005
                   104  1.824199375061150E-003
                   105 -1.477424919862338E-005
                   106 -2.033755266472740E-005
                   107 -5.473455122883130E-006
                   108 -3.178707533994360E-005
                   109 -2.838122831583820E-006
                   110 -3.930820927345571E-004
                   111  4.367016575520380E-004
                   112  8.907381761407900E-006
                   113  7.473856060217580E-004
                   114 -3.372764066306750E-006
                   115 -4.899898512209011E-005
                   116  1.143098616061376E-004
                   117 -7.325016456703114E-007
                   118  1.610407127025188E-005
                   119  6.207665036992020E-006
                   120 -3.046483720208460E-005
                   121  3.720967476106496E-006
                   122 -8.327392264415259E-005
                   123 -6.704934501783340E-004
                   124  2.495334006280690E-004
                   125 -2.944006815992900E-004
                   126 -2.632801867662840E-004
                   127 -1.011646655769190E-005
                   128 -3.218375123882970E-005
                   129  6.038657996975780E-004
                   130  8.297060270182550E-007
                   131  1.823910874978160E-005
                   132  6.018527277999740E-004
                   133  1.157137504435230E-005
                   134  3.172553259917130E-004
                   135 -8.985395700032793E-007
                   136  4.252675123785560E-005
                   137 -3.453224959959190E-008
                   138 -3.216207769670900E-005
                   139 -1.521902349407520E-007
                   140  1.852671058018698E-004
                   141 -2.297294388317900E-004
                   142  1.007252005096500E-006
                   143 -2.607070909317000E-004
                   144 -3.912845717022970E-006
                   145 -2.007103890877831E-005
                   146  1.709657109793777E-005
                   147 -2.875340028649885E-007
                   148 -1.613922017972934E-005
                   149 -1.976235119787410E-006
                   150 -2.666149477115602E-005
                   151 -7.973115628689801E-007
                   152 -6.957461033952111E-005
                   153 -6.726150347744200E-004
                   154  2.494421582519880E-004
                   155 -2.924106365584940E-004
                   156 -2.612619108209370E-004
                   157 -9.890708952359470E-006
                   158  3.241798286120810E-005
                   159  6.025510755088110E-004
                   160  7.352923218204229E-007