[Molden Format]
[Atoms] AU
  N     1    7    -4.4330280600    0.1281827800   -0.0102487400        
  C     2    6    -1.7710624100   -0.0041157000    0.0026815300        
  C     3    6    -0.4266489900    0.0033399500   -2.2679035900        
  C     4    6    -0.4256282400   -0.0003339100    2.2704062200        
  C     5    6     2.1880224400    0.0032792400   -2.2551264300        
  C     6    6     2.1897831000   -0.0020872500    2.2559006900        
  C     7    6     3.5161039600   -0.0010763200    0.0000885600        
  H     8    1    -5.1430718800   -0.5555235000   -1.3962307200        
  H     9    1    -5.1942599700   -0.6020362600    1.5974072100        
  H    10    1    -1.4300327200    0.0136731500   -4.0307174300        
  H    11    1    -1.4278788900    0.0113262700    4.0339330400        
  H    12    1     3.1896739200    0.0029855100   -4.0199334100        
  H    13    1     3.1920501900   -0.0048750000    4.0204303000        
  H    14    1     5.5438478400   -0.0025640700   -0.0006264100        
[5D]
[7F]
[GTO]
  1  0
   s    12 1.00
  0.114200D+05  0.172695D-04
  0.171200D+04  0.134411D-03
  0.389300D+03  0.694561D-03
  0.110000D+03  0.278531D-02
  0.355700D+02  0.863457D-02
  0.125400D+02  0.199805D-01
  0.464400D+01  0.262908D-01
  0.129300D+01 -0.243845D-01
  0.511800D+00 -0.924934D-01
  0.178700D+00 -0.339683D+00
  0.246240D-01  0.345111D+00
  0.112530D-01  0.752750D+00
   s    10 1.00
  0.114200D+05  0.523000D-03
  0.171200D+04  0.404500D-02
  0.389300D+03  0.207750D-01
  0.110000D+03  0.807269D-01
  0.355700D+02  0.233074D+00
  0.125400D+02  0.433501D+00
  0.464400D+01  0.347472D+00
  0.129300D+01  0.412620D-01
  0.511800D+00 -0.850799D-02
  0.178700D+00  0.238400D-02
   s    10 1.00
  0.114200D+05 -0.115000D-03
  0.171200D+04 -0.895000D-03
  0.389300D+03 -0.462400D-02
  0.110000D+03 -0.185280D-01
  0.355700D+02 -0.573390D-01
  0.125400D+02 -0.132076D+00
  0.464400D+01 -0.172510D+00
  0.129300D+01  0.151814D+00
  0.511800D+00  0.599944D+00
  0.178700D+00  0.387462D+00
   s     1 1.00
  0.129300D+01  0.100000D+01
   s     1 1.00
  0.178700D+00  0.100000D+01
   p     5 1.00
  0.266300D+02  0.146700D-01
  0.594800D+01  0.917640D-01
  0.174200D+01  0.298683D+00
  0.555000D+00  0.498487D+00
  0.172500D+00  0.337023D+00
   p     1 1.00
  0.174200D+01  0.100000D+01
   p     1 1.00
  0.555000D+00  0.100000D+01
   d     1 1.00
  0.165400D+01  0.100000D+01
   d     1 1.00
  0.469000D+00  0.100000D+01
   f     1 1.00
  0.109300D+01  0.100000D+01
  
  2  0
   s    10 1.00
  0.823600D+04  0.531000D-03
  0.123500D+04  0.410800D-02
  0.280800D+03  0.210870D-01
  0.792700D+02  0.818530D-01
  0.255900D+02  0.234817D+00
  0.899700D+01  0.434401D+00
  0.331900D+01  0.346129D+00
  0.905900D+00  0.393780D-01
  0.364300D+00 -0.898300D-02
  0.128500D+00  0.238500D-02
   s    10 1.00
  0.823600D+04 -0.113000D-03
  0.123500D+04 -0.878000D-03
  0.280800D+03 -0.454000D-02
  0.792700D+02 -0.181330D-01
  0.255900D+02 -0.557600D-01
  0.899700D+01 -0.126895D+00
  0.331900D+01 -0.170352D+00
  0.905900D+00  0.140382D+00
  0.364300D+00  0.598684D+00
  0.128500D+00  0.395389D+00
   s     1 1.00
  0.905900D+00  0.100000D+01
   s     1 1.00
  0.364300D+00  0.100000D+01
   p     5 1.00
  0.187100D+02  0.140310D-01
  0.413300D+01  0.868660D-01
  0.120000D+01  0.290216D+00
  0.382700D+00  0.501008D+00
  0.120900D+00  0.343406D+00
   p     1 1.00
  0.382700D+00  0.100000D+01
   p     1 1.00
  0.120900D+00  0.100000D+01
   d     1 1.00
  0.109700D+01  0.100000D+01
   d     1 1.00
  0.318000D+00  0.100000D+01
   f     1 1.00
  0.761000D+00  0.100000D+01
  
  3  0
   s    10 1.00
  0.823600D+04  0.531000D-03
  0.123500D+04  0.410800D-02
  0.280800D+03  0.210870D-01
  0.792700D+02  0.818530D-01
  0.255900D+02  0.234817D+00
  0.899700D+01  0.434401D+00
  0.331900D+01  0.346129D+00
  0.905900D+00  0.393780D-01
  0.364300D+00 -0.898300D-02
  0.128500D+00  0.238500D-02
   s    10 1.00
  0.823600D+04 -0.113000D-03
  0.123500D+04 -0.878000D-03
  0.280800D+03 -0.454000D-02
  0.792700D+02 -0.181330D-01
  0.255900D+02 -0.557600D-01
  0.899700D+01 -0.126895D+00
  0.331900D+01 -0.170352D+00
  0.905900D+00  0.140382D+00
  0.364300D+00  0.598684D+00
  0.128500D+00  0.395389D+00
   s     1 1.00
  0.905900D+00  0.100000D+01
   s     1 1.00
  0.364300D+00  0.100000D+01
   p     5 1.00
  0.187100D+02  0.140310D-01
  0.413300D+01  0.868660D-01
  0.120000D+01  0.290216D+00
  0.382700D+00  0.501008D+00
  0.120900D+00  0.343406D+00
   p     1 1.00
  0.382700D+00  0.100000D+01
   p     1 1.00
  0.120900D+00  0.100000D+01
   d     1 1.00
  0.109700D+01  0.100000D+01
   d     1 1.00
  0.318000D+00  0.100000D+01
   f     1 1.00
  0.761000D+00  0.100000D+01
  
  4  0
   s    10 1.00
  0.823600D+04  0.531000D-03
  0.123500D+04  0.410800D-02
  0.280800D+03  0.210870D-01
  0.792700D+02  0.818530D-01
  0.255900D+02  0.234817D+00
  0.899700D+01  0.434401D+00
  0.331900D+01  0.346129D+00
  0.905900D+00  0.393780D-01
  0.364300D+00 -0.898300D-02
  0.128500D+00  0.238500D-02
   s    10 1.00
  0.823600D+04 -0.113000D-03
  0.123500D+04 -0.878000D-03
  0.280800D+03 -0.454000D-02
  0.792700D+02 -0.181330D-01
  0.255900D+02 -0.557600D-01
  0.899700D+01 -0.126895D+00
  0.331900D+01 -0.170352D+00
  0.905900D+00  0.140382D+00
  0.364300D+00  0.598684D+00
  0.128500D+00  0.395389D+00
   s     1 1.00
  0.905900D+00  0.100000D+01
   s     1 1.00
  0.364300D+00  0.100000D+01
   p     5 1.00
  0.187100D+02  0.140310D-01
  0.413300D+01  0.868660D-01
  0.120000D+01  0.290216D+00
  0.382700D+00  0.501008D+00
  0.120900D+00  0.343406D+00
   p     1 1.00
  0.382700D+00  0.100000D+01
   p     1 1.00
  0.120900D+00  0.100000D+01
   d     1 1.00
  0.109700D+01  0.100000D+01
   d     1 1.00
  0.318000D+00  0.100000D+01
   f     1 1.00
  0.761000D+00  0.100000D+01
  
  5  0
   s    10 1.00
  0.823600D+04  0.531000D-03
  0.123500D+04  0.410800D-02
  0.280800D+03  0.210870D-01
  0.792700D+02  0.818530D-01
  0.255900D+02  0.234817D+00
  0.899700D+01  0.434401D+00
  0.331900D+01  0.346129D+00
  0.905900D+00  0.393780D-01
  0.364300D+00 -0.898300D-02
  0.128500D+00  0.238500D-02
   s    10 1.00
  0.823600D+04 -0.113000D-03
  0.123500D+04 -0.878000D-03
  0.280800D+03 -0.454000D-02
  0.792700D+02 -0.181330D-01
  0.255900D+02 -0.557600D-01
  0.899700D+01 -0.126895D+00
  0.331900D+01 -0.170352D+00
  0.905900D+00  0.140382D+00
  0.364300D+00  0.598684D+00
  0.128500D+00  0.395389D+00
   s     1 1.00
  0.905900D+00  0.100000D+01
   s     1 1.00
  0.364300D+00  0.100000D+01
   p     5 1.00
  0.187100D+02  0.140310D-01
  0.413300D+01  0.868660D-01
  0.120000D+01  0.290216D+00
  0.382700D+00  0.501008D+00
  0.120900D+00  0.343406D+00
   p     1 1.00
  0.382700D+00  0.100000D+01
   p     1 1.00
  0.120900D+00  0.100000D+01
   d     1 1.00
  0.109700D+01  0.100000D+01
   d     1 1.00
  0.318000D+00  0.100000D+01
   f     1 1.00
  0.761000D+00  0.100000D+01
  
  6  0
   s    10 1.00
  0.823600D+04  0.531000D-03
  0.123500D+04  0.410800D-02
  0.280800D+03  0.210870D-01
  0.792700D+02  0.818530D-01
  0.255900D+02  0.234817D+00
  0.899700D+01  0.434401D+00
  0.331900D+01  0.346129D+00
  0.905900D+00  0.393780D-01
  0.364300D+00 -0.898300D-02
  0.128500D+00  0.238500D-02
   s    10 1.00
  0.823600D+04 -0.113000D-03
  0.123500D+04 -0.878000D-03
  0.280800D+03 -0.454000D-02
  0.792700D+02 -0.181330D-01
  0.255900D+02 -0.557600D-01
  0.899700D+01 -0.126895D+00
  0.331900D+01 -0.170352D+00
  0.905900D+00  0.140382D+00
  0.364300D+00  0.598684D+00
  0.128500D+00  0.395389D+00
   s     1 1.00
  0.905900D+00  0.100000D+01
   s     1 1.00
  0.364300D+00  0.100000D+01
   p     5 1.00
  0.187100D+02  0.140310D-01
  0.413300D+01  0.868660D-01
  0.120000D+01  0.290216D+00
  0.382700D+00  0.501008D+00
  0.120900D+00  0.343406D+00
   p     1 1.00
  0.382700D+00  0.100000D+01
   p     1 1.00
  0.120900D+00  0.100000D+01
   d     1 1.00
  0.109700D+01  0.100000D+01
   d     1 1.00
  0.318000D+00  0.100000D+01
   f     1 1.00
  0.761000D+00  0.100000D+01
  
  7  0
   s    10 1.00
  0.823600D+04  0.531000D-03
  0.123500D+04  0.410800D-02
  0.280800D+03  0.210870D-01
  0.792700D+02  0.818530D-01
  0.255900D+02  0.234817D+00
  0.899700D+01  0.434401D+00
  0.331900D+01  0.346129D+00
  0.905900D+00  0.393780D-01
  0.364300D+00 -0.898300D-02
  0.128500D+00  0.238500D-02
   s    10 1.00
  0.823600D+04 -0.113000D-03
  0.123500D+04 -0.878000D-03
  0.280800D+03 -0.454000D-02
  0.792700D+02 -0.181330D-01
  0.255900D+02 -0.557600D-01
  0.899700D+01 -0.126895D+00
  0.331900D+01 -0.170352D+00
  0.905900D+00  0.140382D+00
  0.364300D+00  0.598684D+00
  0.128500D+00  0.395389D+00
   s     1 1.00
  0.905900D+00  0.100000D+01
   s     1 1.00
  0.364300D+00  0.100000D+01
   p     5 1.00
  0.187100D+02  0.140310D-01
  0.413300D+01  0.868660D-01
  0.120000D+01  0.290216D+00
  0.382700D+00  0.501008D+00
  0.120900D+00  0.343406D+00
   p     1 1.00
  0.382700D+00  0.100000D+01
   p     1 1.00
  0.120900D+00  0.100000D+01
   d     1 1.00
  0.109700D+01  0.100000D+01
   d     1 1.00
  0.318000D+00  0.100000D+01
   f     1 1.00
  0.761000D+00  0.100000D+01
  
  8  0
   s     4 1.00
  0.130100D+02  0.196850D-01
  0.196200D+01  0.137977D+00
  0.444600D+00  0.478148D+00
  0.122000D+00  0.501240D+00
   s     1 1.00
  0.122000D+00  0.100000D+01
   p     1 1.00
  0.727000D+00  0.100000D+01
  
  9  0
   s     4 1.00
  0.130100D+02  0.196850D-01
  0.196200D+01  0.137977D+00
  0.444600D+00  0.478148D+00
  0.122000D+00  0.501240D+00
   s     1 1.00
  0.122000D+00  0.100000D+01
   p     1 1.00
  0.727000D+00  0.100000D+01
  
 10  0
   s     4 1.00
  0.130100D+02  0.196850D-01
  0.196200D+01  0.137977D+00
  0.444600D+00  0.478148D+00
  0.122000D+00  0.501240D+00
   s     1 1.00
  0.122000D+00  0.100000D+01
   p     1 1.00
  0.727000D+00  0.100000D+01
  
 11  0
   s     4 1.00
  0.130100D+02  0.196850D-01
  0.196200D+01  0.137977D+00
  0.444600D+00  0.478148D+00
  0.122000D+00  0.501240D+00
   s     1 1.00
  0.122000D+00  0.100000D+01
   p     1 1.00
  0.727000D+00  0.100000D+01
  
 12  0
   s     4 1.00
  0.130100D+02  0.196850D-01
  0.196200D+01  0.137977D+00
  0.444600D+00  0.478148D+00
  0.122000D+00  0.501240D+00
   s     1 1.00
  0.122000D+00  0.100000D+01
   p     1 1.00
  0.727000D+00  0.100000D+01
  
 13  0
   s     4 1.00
  0.130100D+02  0.196850D-01
  0.196200D+01  0.137977D+00
  0.444600D+00  0.478148D+00
  0.122000D+00  0.501240D+00
   s     1 1.00
  0.122000D+00  0.100000D+01
   p     1 1.00
  0.727000D+00  0.100000D+01
  
 14  0
   s     4 1.00
  0.130100D+02  0.196850D-01
  0.196200D+01  0.137977D+00
  0.444600D+00  0.478148D+00
  0.122000D+00  0.501240D+00
   s     1 1.00
  0.122000D+00  0.100000D+01
   p     1 1.00
  0.727000D+00  0.100000D+01
  
[MO]
 Sym= __1_a__
 Ene=  0.000000000000000E+000
 Spin= Alpha
 Occup=    2.00000000000000     
                     1  2.031731949159230E-004
                     2  0.997861177088685     
                     3  6.756441029842420E-003
                     4  2.143667427499910E-003
                     5  4.279887685418890E-003
                     6  4.908520147773400E-003
                     7 -3.897600164474440E-003
                     8 -6.096284504903370E-005
                     9 -6.276578137050320E-004
                    10  2.877885404821020E-005
                    11 -1.109640259286560E-004
                    12 -1.066492041043960E-003
                    13  2.471462291789270E-003
                    14 -1.988939678718240E-004
                    15  8.519778180867791E-005
                    16  8.947901109771320E-005
                    17  9.696557534995501E-005
                    18  1.135936796528670E-004
                    19  1.152935930001550E-004
                    20 -3.379397155504602E-004
                    21  8.994731899890869E-005
                    22  7.440694959849770E-005
                    23  8.530098819669861E-006
                    24 -4.084669237928570E-004
                    25  1.462091858822642E-005
                    26 -2.420624291855515E-004
                    27 -1.519458306591760E-004
                    28  8.555460448343819E-006
                    29 -7.225766025824880E-005
                    30 -1.175540141772248E-004
                    31 -7.040610558837958E-005
                    32 -3.764379585790590E-004
                    33  1.399470992758700E-003
                    34  2.121860239066820E-004
                    35 -1.391182488898530E-004
                    36 -5.245933884589140E-003
                    37  6.313599553520410E-005
                    38  5.481076228106130E-005
                    39  1.446753684459000E-004
                    40 -1.130580967312450E-005
                    41 -2.789766074264990E-005
                    42  4.595952043709760E-003
                    43  7.591716383374060E-004
                    44  1.174956313868770E-005
                    45 -2.483249074675231E-004
                    46  1.185393888265540E-005
                    47  2.031901497149330E-006
                    48  2.223845158675100E-004
                    49  4.661807549818790E-005
                    50  3.393635182471754E-004
                    51 -2.044730336426350E-005
                    52 -2.459966570699130E-005
                    53  7.503295805193880E-005
                    54 -3.191615561645920E-004
                    55 -4.676038961182306E-006
                    56 -8.566224901932116E-005
                    57  1.325556166465238E-005
                    58 -7.951841773291880E-006
                    59 -3.787875668477000E-006
                    60 -3.466762051826902E-005
                    61  3.589669903765610E-005
                    62 -3.329638198761300E-004
                    63 -1.913135075368800E-003
                    64  7.386587120141110E-005
                    65  8.603714356342280E-004
                    66  8.104934504937090E-004
                    67 -3.822752134048570E-005
                    68 -7.034656245884040E-004
                    69  5.689456935042550E-004
                    70  5.836253250565100E-005
                    71  8.362579369537890E-005
                    72 -4.682122139157380E-004
                    73 -3.430054789604380E-004
                    74 -6.482824489639960E-004
                    75 -8.019816657546124E-005
                    76 -1.168447526985450E-005
                    77  1.769192982602070E-005
                    78  6.346965678097561E-005
                    79 -8.128303379347420E-006
                    80  1.259910475268459E-004
                    81  1.588710093817830E-004
                    82 -3.509004045672190E-005
                    83 -6.871115832613541E-005
                    84  5.097213644542040E-005
                    85 -2.695124852863693E-006
                    86 -6.496154104195007E-005
                    87  1.736461929654215E-005
                    88 -1.451188323388382E-005
                    89  1.399398857940440E-005
                    90 -5.128080301637941E-005
                    91 -1.068183008428242E-005
                    92 -3.096619169294270E-004
                    93 -1.766988889951280E-003
                    94  7.396598599272070E-005
                    95  8.153047523470370E-004
                    96  7.608265856548990E-004
                    97 -4.958903397395590E-005
                    98  6.477792934283570E-004
                    99  5.002362826157340E-004
                   100  8.227694132396470E-005
                   101 -1.188180884005880E-004
                   102 -3.364289883542950E-004
                   103 -3.378919724052890E-004
                   104  7.027424812763660E-004
                   105 -7.599109206255955E-005
                   106  1.691757803556030E-005
                   107 -1.858277436669060E-005
                   108  6.542080215511240E-005
                   109 -8.917565191827819E-006
                   110  1.604992662024789E-004
                   111 -1.702054386613930E-004
                   112  2.027458668196730E-005
                   113 -1.090750012052690E-004
                   114  3.871717054349180E-005
                   115  4.448945664615856E-006
                   116 -6.041047208343916E-005
                   117  2.085473899541234E-005
                   118  1.592440393754966E-005
                   119 -9.334947453114269E-006
                   120 -4.959309563775629E-005
                   121 -1.061065609569438E-005
                   122 -1.749261798860850E-004
                   123 -1.783321483471770E-004
                   124  7.005271280262971E-005
                   125  4.183143138287120E-004
                   126 -6.779055788937870E-004
                   127 -1.743367976630940E-005
                   128  2.901928764701650E-005
                   129  2.686703428214930E-004
                   130 -1.912122462370420E-005
                   131  1.953207797731280E-005
                   132  7.281070955259770E-004
                   133  1.386530616915450E-004
                   134 -2.639922739766010E-004
                   135  5.350782622181880E-006
                   136  1.282972558114620E-006
                   137 -3.202160028037460E-006
                   138 -3.531395388613500E-006
                   139  7.319459834628050E-006
                   140  7.152045096830234E-005
                   141  1.792540865594560E-004
                   142  8.524826977001750E-006
                   143 -1.782073116103784E-004
                   144 -1.475134945141530E-005
                   145 -8.600425122758564E-006
                   146 -1.633715897792237E-005
                   147  2.225399501605267E-006
                   148 -2.271586758931800E-006
                   149 -1.854502753254960E-006
                   150 -4.302299378361543E-005
                   151 -7.801028312648343E-007
                   152 -1.748534152213030E-004
                   153 -1.976869025920650E-004
                   154  5.317312439079310E-005
                   155  4.921787973492120E-004
                   156 -6.513342978005680E-004
                   157 -1.679829055237890E-005
                   158 -2.701360254426250E-005
                   159  2.189137801217130E-004
                   160 -1.907682717463530E-005
                   161 -1.153313794746240E-005
                   162  8.403983684399391E-004
                   163  1.387245135644480E-004
                   164  2.148638746109110E-004
                   165  3.528899062789021E-006
                   166  9.230379653693900E-007
                   167  2.718926548155180E-006
                   168  1.843466877209280E-007
                   169  7.542442284882570E-006
                   170  6.454823050078388E-005
                   171 -1.918556570968840E-004
                   172 -4.333105125422220E-006
                   173 -1.642061086805890E-004
                   174 -1.788275568945870E-005
                   175  9.639898822491120E-006
                   176 -1.292079156671815E-005
                   177  1.954925059385535E-006
                   178  3.231907602930000E-006
                   179  2.060439712034930E-006
                   180 -4.093624415768713E-005
                   181 -7.902372626690589E-007
                   182 -1.189961504273500E-004
                   183 -3.679188316657120E-004
                   184  2.878128285865680E-005
                   185  1.339793192477830E-004
                   186 -9.825090005933701E-006
                   187 -3.571870209938020E-005
                   188 -2.481238931044970E-006
                   189  7.684437067495760E-005
                   190  2.146372902401110E-005
                   191 -2.486151068499690E-006
                   192 -2.796138074183200E-004
                   193 -1.012263253525980E-004
                   194 -6.412961056355261E-005
                   195 -1.382235771062967E-005
                   196  7.991525503135249E-007
                   197  1.091327383772990E-007
                   198  6.265263888088680E-006
                   199 -2.604321169879690E-006
                   200 -1.080971162327492E-004
                   201  3.913389816329810E-007
                   202  1.968448931292270E-006
                   203  5.928380225619960E-005
                   204  1.488440428656190E-005
                   205 -5.385785911150623E-007
                   206 -2.434291717318129E-007
                   207  2.983058062316898E-006
                   208 -4.703422487164220E-007
                   209 -4.306557896146430E-007
                   210 -5.490103631989586E-006
                   211 -2.224968816372515E-006
                   212  3.970109039179930E-003
                   213 -2.929454202252560E-003
                   214  1.737030291893250E-004
                   215  2.200251330866890E-004
                   216  3.015079725250190E-004
                   217  3.589425568928980E-003
                   218 -2.475429532899310E-003
                   219  2.178428482459740E-004
                   220  2.648983904781380E-004
                   221 -4.449322301230890E-004
                   222 -5.960445215036770E-004
                   223 -1.940638858762440E-004
                   224 -5.744286491324850E-005
                   225  8.708318661486801E-006
                   226  1.778273989770800E-005
                   227 -5.905694696170720E-004
                   228 -2.141950794785920E-004
                   229 -6.507866969359900E-005
                   230  1.003024785813540E-005
                   231 -2.112793109721410E-005
                   232 -1.593725102444220E-004
                   233 -4.298976131505350E-004
                   234  3.640443900343120E-006
                   235 -1.102300056896620E-006
                   236 -8.558194940866409E-006
                   237 -1.459661946152310E-004
                   238 -4.387259069946280E-004
                   239  4.441841722480280E-006
                   240 -1.904222552408590E-006
                   241  1.043510654632030E-005
                   242  4.804040504591720E-005
                   243  7.433594166564300E-005
                   244  2.515140015104990E-005
                   245  1.365128599016730E-006
                   246  9.328264142882060E-007
 Sym= __2_a__
 Ene=  0.000000000000000E+000
 Spin= Alpha
 Occup=    2.00000000000000     
                     1 -2.442369507422460E-005
                     2 -9.240434515325270E-005
                     3  1.780294693183410E-003
                     4  1.424458046567710E-006
                     5  1.325141972705500E-003
                     6  2.116006125786630E-003
                     7  3.619003225315300E-004
                     8  2.818430967288930E-005
                     9 -1.446770938094000E-004
                    10  8.137915592264119E-005
                    11  5.567492650885390E-006
                    12 -4.979794501368150E-006
                    13  2.868856984713050E-005
                    14  1.289104412301730E-005
                    15 -7.637298646311309E-005
                    16  4.589420787363010E-007
                    17 -9.932237433840811E-007
                    18  3.320643245977420E-005
                    19 -2.723879901255930E-006
                    20  2.563769826305880E-004
                    21 -4.080056279212050E-005
                    22 -1.362973749303750E-005
                    23  6.736353313747859E-005
                    24 -5.034446011580690E-005
                    25  1.658815090446692E-006
                    26  1.420645980865650E-004
                    27 -5.894532501451704E-005
                    28  3.220306070669260E-007
                    29  8.378507116502271E-006
                    30  1.379330147973580E-004
                    31  3.305620824499230E-005
                    32   1.00098393802837     
                    33  8.850209243050969E-003
                    34  2.776869957260860E-003
                    35 -8.160241517586139E-003
                    36 -2.795211308837610E-003
                    37  6.445088380562860E-004
                    38  7.535369164678380E-006
                    39  1.146562511230020E-003
                    40 -2.063628668659920E-004
                    41 -3.067604746817430E-005
                    42  3.634601310757240E-003
                    43 -1.261879497903350E-004
                    44 -3.923062539812880E-005
                    45  2.885806988176081E-004
                    46  6.360637189821730E-006
                    47 -1.150080066395060E-006
                    48  4.460571764821940E-004
                    49 -1.881030205497700E-005
                    50 -1.063817265542825E-003
                    51 -6.107488489555030E-005
                    52  8.302859340900681E-006
                    53 -1.053001883451190E-004
                    54  1.186214326548980E-005
                    55 -1.902940034269987E-006
                    56  3.318940858838910E-004
                    57 -8.554709813097993E-006
                    58 -2.729583509264200E-006
                    59  4.058891182214410E-007
                    60  8.995373472391468E-005
                    61  1.719306359037617E-005
                    62  1.163771603421590E-002
                    63 -1.908506622593480E-003
                    64 -3.035344331583610E-004
                    65  3.128648729600060E-003
                    66 -1.435929167428990E-004
                    67  1.102923235476820E-004
                    68  2.520074629506130E-004
                    69  3.357938725853200E-005
                    70  8.818141857681290E-006
                    71  4.889029380175860E-004
                    72  1.843310294494080E-004
                    73 -2.057775005611420E-005
                    74 -1.910403912695290E-003
                    75 -1.314191747420693E-005
                    76  2.716379762492910E-005
                    77  7.306680831601270E-006
                    78 -3.715879801364880E-005
                    79 -4.655049619329720E-006
                    80 -4.426044844121355E-004
                    81 -4.635478085503320E-004
                    82  9.022883643519900E-006
                    83  7.710621305881959E-004
                    84 -4.130078637293770E-006
                    85  5.400639248721886E-005
                    86  1.132888266044546E-004
                    87  1.710462922067657E-006
                    88 -1.272065784041696E-005
                    89 -6.581139084271330E-006
                    90 -2.688556232277972E-005
                    91  4.496441259854514E-006
                    92  1.172290063605990E-002
                    93 -1.909103223825350E-003
                    94 -3.166799625314930E-004
                    95  3.213483730033990E-003
                    96 -1.493856188503680E-004
                    97  1.132994709367760E-004
                    98 -2.464959073584960E-004
                    99  2.583568547192110E-005
                   100  2.435537451739420E-006
                   101 -5.494608582208850E-004
                   102  1.224756219389680E-004
                   103 -2.411627664030480E-005
                   104  1.867277530992190E-003
                   105 -1.204977082223615E-005
                   106 -2.465764691325230E-005
                   107 -7.298523721127250E-006
                   108 -3.541277113779900E-005
                   109 -4.667602989212450E-006
                   110 -4.125486050566508E-004
                   111  4.647531463622300E-004
                   112 -4.774159146497140E-006
                   113  7.561392994147800E-004
                   114 -1.459040655243360E-006
                   115 -5.122356228268542E-005
                   116  1.101438473075840E-004
                   117  6.992683242671289E-007
                   118  1.558386272254814E-005
                   119  5.015153739565610E-006
                   120 -2.938513932179538E-005
                   121  4.268752291897775E-006
                   122 -1.677278608279090E-004
                   123 -7.309820115533320E-004
                   124  2.509374305460030E-004
                   125 -3.086060654986580E-004
                   126 -1.899937004342660E-004
                   127  2.171303516262110E-005
                   128 -4.358690192292670E-005
                   129  6.020142095645290E-004
                   130 -4.394648358456200E-006
                   131  4.372528685354450E-005
                   132  6.263033488604730E-004
                   133 -2.704295830323780E-006
                   134  3.605906002835080E-004
                   135 -6.671964450299932E-007
                   136  4.262868192029560E-005
                   137  2.561814140503700E-007
                   138 -3.248997445684580E-005
                   139 -1.282209695722930E-006
                   140  1.981318169085423E-004
                   141 -2.604671787212120E-004
                   142 -3.447074131425960E-007
                   143 -2.667441458048440E-004
                   144 -1.828455934732180E-006
                   145 -1.890532209178692E-005
                   146  1.522370482489923E-005
                   147  1.184060265449071E-007
                   148 -1.421863028483736E-005
                   149 -1.477587672604000E-006
                   150 -2.441040764628828E-005
                   151 -9.123800820027993E-007
                   152 -1.632173082334330E-004
                   153 -7.214036860184050E-004
                   154  2.541552603834710E-004
                   155 -3.163480919914510E-004
                   156 -1.905776251678650E-004
                   157  2.138457891968010E-005
                   158  4.093732807794300E-005
                   159  5.974312914265990E-004
                   160 -5.053659706141510E-006