[Molden Format]
[Atoms] AU
  N     1    7    -4.4330280600    0.1281827800   -0.0102487400        
  C     2    6    -1.7710624100   -0.0041157000    0.0026815300        
  C     3    6    -0.4266489900    0.0033399500   -2.2679035900        
  C     4    6    -0.4256282400   -0.0003339100    2.2704062200        
  C     5    6     2.1880224400    0.0032792400   -2.2551264300        
  C     6    6     2.1897831000   -0.0020872500    2.2559006900        
  C     7    6     3.5161039600   -0.0010763200    0.0000885600        
  H     8    1    -5.1430718800   -0.5555235000   -1.3962307200        
  H     9    1    -5.1942599700   -0.6020362600    1.5974072100        
  H    10    1    -1.4300327200    0.0136731500   -4.0307174300        
  H    11    1    -1.4278788900    0.0113262700    4.0339330400        
  H    12    1     3.1896739200    0.0029855100   -4.0199334100        
  H    13    1     3.1920501900   -0.0048750000    4.0204303000        
  H    14    1     5.5438478400   -0.0025640700   -0.0006264100        
[5D]
[7F]
[GTO]
  1  0
   s    12 1.00
  0.114200D+05  0.172695D-04
  0.171200D+04  0.134411D-03
  0.389300D+03  0.694561D-03
  0.110000D+03  0.278531D-02
  0.355700D+02  0.863457D-02
  0.125400D+02  0.199805D-01
  0.464400D+01  0.262908D-01
  0.129300D+01 -0.243845D-01
  0.511800D+00 -0.924934D-01
  0.178700D+00 -0.339683D+00
  0.246240D-01  0.345111D+00
  0.112530D-01  0.752750D+00
   s    10 1.00
  0.114200D+05  0.523000D-03
  0.171200D+04  0.404500D-02
  0.389300D+03  0.207750D-01
  0.110000D+03  0.807269D-01
  0.355700D+02  0.233074D+00
  0.125400D+02  0.433501D+00
  0.464400D+01  0.347472D+00
  0.129300D+01  0.412620D-01
  0.511800D+00 -0.850799D-02
  0.178700D+00  0.238400D-02
   s    10 1.00
  0.114200D+05 -0.115000D-03
  0.171200D+04 -0.895000D-03
  0.389300D+03 -0.462400D-02
  0.110000D+03 -0.185280D-01
  0.355700D+02 -0.573390D-01
  0.125400D+02 -0.132076D+00
  0.464400D+01 -0.172510D+00
  0.129300D+01  0.151814D+00
  0.511800D+00  0.599944D+00
  0.178700D+00  0.387462D+00
   s     1 1.00
  0.129300D+01  0.100000D+01
   s     1 1.00
  0.178700D+00  0.100000D+01
   p     5 1.00
  0.266300D+02  0.146700D-01
  0.594800D+01  0.917640D-01
  0.174200D+01  0.298683D+00
  0.555000D+00  0.498487D+00
  0.172500D+00  0.337023D+00
   p     1 1.00
  0.174200D+01  0.100000D+01
   p     1 1.00
  0.555000D+00  0.100000D+01
   d     1 1.00
  0.165400D+01  0.100000D+01
   d     1 1.00
  0.469000D+00  0.100000D+01
   f     1 1.00
  0.109300D+01  0.100000D+01
  
  2  0
   s    10 1.00
  0.823600D+04  0.531000D-03
  0.123500D+04  0.410800D-02
  0.280800D+03  0.210870D-01
  0.792700D+02  0.818530D-01
  0.255900D+02  0.234817D+00
  0.899700D+01  0.434401D+00
  0.331900D+01  0.346129D+00
  0.905900D+00  0.393780D-01
  0.364300D+00 -0.898300D-02
  0.128500D+00  0.238500D-02
   s    10 1.00
  0.823600D+04 -0.113000D-03
  0.123500D+04 -0.878000D-03
  0.280800D+03 -0.454000D-02
  0.792700D+02 -0.181330D-01
  0.255900D+02 -0.557600D-01
  0.899700D+01 -0.126895D+00
  0.331900D+01 -0.170352D+00
  0.905900D+00  0.140382D+00
  0.364300D+00  0.598684D+00
  0.128500D+00  0.395389D+00
   s     1 1.00
  0.905900D+00  0.100000D+01
   s     1 1.00
  0.364300D+00  0.100000D+01
   p     5 1.00
  0.187100D+02  0.140310D-01
  0.413300D+01  0.868660D-01
  0.120000D+01  0.290216D+00
  0.382700D+00  0.501008D+00
  0.120900D+00  0.343406D+00
   p     1 1.00
  0.382700D+00  0.100000D+01
   p     1 1.00
  0.120900D+00  0.100000D+01
   d     1 1.00
  0.109700D+01  0.100000D+01
   d     1 1.00
  0.318000D+00  0.100000D+01
   f     1 1.00
  0.761000D+00  0.100000D+01
  
  3  0
   s    10 1.00
  0.823600D+04  0.531000D-03
  0.123500D+04  0.410800D-02
  0.280800D+03  0.210870D-01
  0.792700D+02  0.818530D-01
  0.255900D+02  0.234817D+00
  0.899700D+01  0.434401D+00
  0.331900D+01  0.346129D+00
  0.905900D+00  0.393780D-01
  0.364300D+00 -0.898300D-02
  0.128500D+00  0.238500D-02
   s    10 1.00
  0.823600D+04 -0.113000D-03
  0.123500D+04 -0.878000D-03
  0.280800D+03 -0.454000D-02
  0.792700D+02 -0.181330D-01
  0.255900D+02 -0.557600D-01
  0.899700D+01 -0.126895D+00
  0.331900D+01 -0.170352D+00
  0.905900D+00  0.140382D+00
  0.364300D+00  0.598684D+00
  0.128500D+00  0.395389D+00
   s     1 1.00
  0.905900D+00  0.100000D+01
   s     1 1.00
  0.364300D+00  0.100000D+01
   p     5 1.00
  0.187100D+02  0.140310D-01
  0.413300D+01  0.868660D-01
  0.120000D+01  0.290216D+00
  0.382700D+00  0.501008D+00
  0.120900D+00  0.343406D+00
   p     1 1.00
  0.382700D+00  0.100000D+01
   p     1 1.00
  0.120900D+00  0.100000D+01
   d     1 1.00
  0.109700D+01  0.100000D+01
   d     1 1.00
  0.318000D+00  0.100000D+01
   f     1 1.00
  0.761000D+00  0.100000D+01
  
  4  0
   s    10 1.00
  0.823600D+04  0.531000D-03
  0.123500D+04  0.410800D-02
  0.280800D+03  0.210870D-01
  0.792700D+02  0.818530D-01
  0.255900D+02  0.234817D+00
  0.899700D+01  0.434401D+00
  0.331900D+01  0.346129D+00
  0.905900D+00  0.393780D-01
  0.364300D+00 -0.898300D-02
  0.128500D+00  0.238500D-02
   s    10 1.00
  0.823600D+04 -0.113000D-03
  0.123500D+04 -0.878000D-03
  0.280800D+03 -0.454000D-02
  0.792700D+02 -0.181330D-01
  0.255900D+02 -0.557600D-01
  0.899700D+01 -0.126895D+00
  0.331900D+01 -0.170352D+00
  0.905900D+00  0.140382D+00
  0.364300D+00  0.598684D+00
  0.128500D+00  0.395389D+00
   s     1 1.00
  0.905900D+00  0.100000D+01
   s     1 1.00
  0.364300D+00  0.100000D+01
   p     5 1.00
  0.187100D+02  0.140310D-01
  0.413300D+01  0.868660D-01
  0.120000D+01  0.290216D+00
  0.382700D+00  0.501008D+00
  0.120900D+00  0.343406D+00
   p     1 1.00
  0.382700D+00  0.100000D+01
   p     1 1.00
  0.120900D+00  0.100000D+01
   d     1 1.00
  0.109700D+01  0.100000D+01
   d     1 1.00
  0.318000D+00  0.100000D+01
   f     1 1.00
  0.761000D+00  0.100000D+01
  
  5  0
   s    10 1.00
  0.823600D+04  0.531000D-03
  0.123500D+04  0.410800D-02
  0.280800D+03  0.210870D-01
  0.792700D+02  0.818530D-01
  0.255900D+02  0.234817D+00
  0.899700D+01  0.434401D+00
  0.331900D+01  0.346129D+00
  0.905900D+00  0.393780D-01
  0.364300D+00 -0.898300D-02
  0.128500D+00  0.238500D-02
   s    10 1.00
  0.823600D+04 -0.113000D-03
  0.123500D+04 -0.878000D-03
  0.280800D+03 -0.454000D-02
  0.792700D+02 -0.181330D-01
  0.255900D+02 -0.557600D-01
  0.899700D+01 -0.126895D+00
  0.331900D+01 -0.170352D+00
  0.905900D+00  0.140382D+00
  0.364300D+00  0.598684D+00
  0.128500D+00  0.395389D+00
   s     1 1.00
  0.905900D+00  0.100000D+01
   s     1 1.00
  0.364300D+00  0.100000D+01
   p     5 1.00
  0.187100D+02  0.140310D-01
  0.413300D+01  0.868660D-01
  0.120000D+01  0.290216D+00
  0.382700D+00  0.501008D+00
  0.120900D+00  0.343406D+00
   p     1 1.00
  0.382700D+00  0.100000D+01
   p     1 1.00
  0.120900D+00  0.100000D+01
   d     1 1.00
  0.109700D+01  0.100000D+01
   d     1 1.00
  0.318000D+00  0.100000D+01
   f     1 1.00
  0.761000D+00  0.100000D+01
  
  6  0
   s    10 1.00
  0.823600D+04  0.531000D-03
  0.123500D+04  0.410800D-02
  0.280800D+03  0.210870D-01
  0.792700D+02  0.818530D-01
  0.255900D+02  0.234817D+00
  0.899700D+01  0.434401D+00
  0.331900D+01  0.346129D+00
  0.905900D+00  0.393780D-01
  0.364300D+00 -0.898300D-02
  0.128500D+00  0.238500D-02
   s    10 1.00
  0.823600D+04 -0.113000D-03
  0.123500D+04 -0.878000D-03
  0.280800D+03 -0.454000D-02
  0.792700D+02 -0.181330D-01
  0.255900D+02 -0.557600D-01
  0.899700D+01 -0.126895D+00
  0.331900D+01 -0.170352D+00
  0.905900D+00  0.140382D+00
  0.364300D+00  0.598684D+00
  0.128500D+00  0.395389D+00
   s     1 1.00
  0.905900D+00  0.100000D+01
   s     1 1.00
  0.364300D+00  0.100000D+01
   p     5 1.00
  0.187100D+02  0.140310D-01
  0.413300D+01  0.868660D-01
  0.120000D+01  0.290216D+00
  0.382700D+00  0.501008D+00
  0.120900D+00  0.343406D+00
   p     1 1.00
  0.382700D+00  0.100000D+01
   p     1 1.00
  0.120900D+00  0.100000D+01
   d     1 1.00
  0.109700D+01  0.100000D+01
   d     1 1.00
  0.318000D+00  0.100000D+01
   f     1 1.00
  0.761000D+00  0.100000D+01
  
  7  0
   s    10 1.00
  0.823600D+04  0.531000D-03
  0.123500D+04  0.410800D-02
  0.280800D+03  0.210870D-01
  0.792700D+02  0.818530D-01
  0.255900D+02  0.234817D+00
  0.899700D+01  0.434401D+00
  0.331900D+01  0.346129D+00
  0.905900D+00  0.393780D-01
  0.364300D+00 -0.898300D-02
  0.128500D+00  0.238500D-02
   s    10 1.00
  0.823600D+04 -0.113000D-03
  0.123500D+04 -0.878000D-03
  0.280800D+03 -0.454000D-02
  0.792700D+02 -0.181330D-01
  0.255900D+02 -0.557600D-01
  0.899700D+01 -0.126895D+00
  0.331900D+01 -0.170352D+00
  0.905900D+00  0.140382D+00
  0.364300D+00  0.598684D+00
  0.128500D+00  0.395389D+00
   s     1 1.00
  0.905900D+00  0.100000D+01
   s     1 1.00
  0.364300D+00  0.100000D+01
   p     5 1.00
  0.187100D+02  0.140310D-01
  0.413300D+01  0.868660D-01
  0.120000D+01  0.290216D+00
  0.382700D+00  0.501008D+00
  0.120900D+00  0.343406D+00
   p     1 1.00
  0.382700D+00  0.100000D+01
   p     1 1.00
  0.120900D+00  0.100000D+01
   d     1 1.00
  0.109700D+01  0.100000D+01
   d     1 1.00
  0.318000D+00  0.100000D+01
   f     1 1.00
  0.761000D+00  0.100000D+01
  
  8  0
   s     4 1.00
  0.130100D+02  0.196850D-01
  0.196200D+01  0.137977D+00
  0.444600D+00  0.478148D+00
  0.122000D+00  0.501240D+00
   s     1 1.00
  0.122000D+00  0.100000D+01
   p     1 1.00
  0.727000D+00  0.100000D+01
  
  9  0
   s     4 1.00
  0.130100D+02  0.196850D-01
  0.196200D+01  0.137977D+00
  0.444600D+00  0.478148D+00
  0.122000D+00  0.501240D+00
   s     1 1.00
  0.122000D+00  0.100000D+01
   p     1 1.00
  0.727000D+00  0.100000D+01
  
 10  0
   s     4 1.00
  0.130100D+02  0.196850D-01
  0.196200D+01  0.137977D+00
  0.444600D+00  0.478148D+00
  0.122000D+00  0.501240D+00
   s     1 1.00
  0.122000D+00  0.100000D+01
   p     1 1.00
  0.727000D+00  0.100000D+01
  
 11  0
   s     4 1.00
  0.130100D+02  0.196850D-01
  0.196200D+01  0.137977D+00
  0.444600D+00  0.478148D+00
  0.122000D+00  0.501240D+00
   s     1 1.00
  0.122000D+00  0.100000D+01
   p     1 1.00
  0.727000D+00  0.100000D+01
  
 12  0
   s     4 1.00
  0.130100D+02  0.196850D-01
  0.196200D+01  0.137977D+00
  0.444600D+00  0.478148D+00
  0.122000D+00  0.501240D+00
   s     1 1.00
  0.122000D+00  0.100000D+01
   p     1 1.00
  0.727000D+00  0.100000D+01
  
 13  0
   s     4 1.00
  0.130100D+02  0.196850D-01
  0.196200D+01  0.137977D+00
  0.444600D+00  0.478148D+00
  0.122000D+00  0.501240D+00
   s     1 1.00
  0.122000D+00  0.100000D+01
   p     1 1.00
  0.727000D+00  0.100000D+01
  
 14  0
   s     4 1.00
  0.130100D+02  0.196850D-01
  0.196200D+01  0.137977D+00
  0.444600D+00  0.478148D+00
  0.122000D+00  0.501240D+00
   s     1 1.00
  0.122000D+00  0.100000D+01
   p     1 1.00
  0.727000D+00  0.100000D+01
  
[MO]
 Sym= __1_A__
 Ene=   1.00000000000000     
 Spin= Alpha
 Occup=    1.00000000000000     
                     1  2.031731949159234E-004
                     2  0.997861177088685     
                     3  6.756441029842417E-003
                     4  2.143667427499914E-003
                     5  4.279887685418889E-003
                     6  4.908520147773396E-003
                     7 -3.897600164474440E-003
                     8 -6.096284504903369E-005
                     9 -6.276578137050316E-004
                    10  2.877885404821024E-005
                    11 -1.109640259286556E-004
                    12 -1.066492041043963E-003
                    13  2.471462291789274E-003
                    14 -1.988939678718240E-004
                    15  8.519778180867785E-005
                    16  8.947901109771322E-005
                    17  9.696557534995498E-005
                    18  1.135936796528670E-004
                    19  1.152935930001551E-004
                    20 -3.379397155504603E-004
                    21  8.994731899890868E-005
                    22  7.440694959849773E-005
                    23  8.530098819669864E-006
                    24 -4.084669237928574E-004
                    25  1.462091858822643E-005
                    26 -2.420624291855515E-004
                    27 -1.519458306591760E-004
                    28  8.555460448343826E-006
                    29 -7.225766025824883E-005
                    30 -1.175540141772249E-004
                    31 -7.040610558837958E-005
                    32 -3.764379585790587E-004
                    33  1.399470992758699E-003
                    34  2.121860239066825E-004
                    35 -1.391182488898530E-004
                    36 -5.245933884589144E-003
                    37  6.313599553520408E-005
                    38  5.481076228106132E-005
                    39  1.446753684459003E-004
                    40 -1.130580967312452E-005
                    41 -2.789766074264987E-005
                    42  4.595952043709759E-003
                    43  7.591716383374064E-004
                    44  1.174956313868774E-005
                    45 -2.483249074675230E-004
                    46  1.185393888265537E-005
                    47  2.031901497149333E-006
                    48  2.223845158675104E-004
                    49  4.661807549818786E-005
                    50  3.393635182471752E-004
                    51 -2.044730336426350E-005
                    52 -2.459966570699131E-005
                    53  7.503295805193878E-005
                    54 -3.191615561645916E-004
                    55 -4.676038961182311E-006
                    56 -8.566224901932135E-005
                    57  1.325556166465237E-005
                    58 -7.951841773291876E-006
                    59 -3.787875668476999E-006
                    60 -3.466762051826900E-005
                    61  3.589669903765610E-005
                    62 -3.329638198761296E-004
                    63 -1.913135075368799E-003
                    64  7.386587120141110E-005
                    65  8.603714356342279E-004
                    66  8.104934504937092E-004
                    67 -3.822752134048571E-005
                    68 -7.034656245884039E-004
                    69  5.689456935042548E-004
                    70  5.836253250565099E-005
                    71  8.362579369537890E-005
                    72 -4.682122139157383E-004
                    73 -3.430054789604376E-004
                    74 -6.482824489639959E-004
                    75 -8.019816657546128E-005
                    76 -1.168447526985447E-005
                    77  1.769192982602072E-005
                    78  6.346965678097558E-005
                    79 -8.128303379347418E-006
                    80  1.259910475268458E-004
                    81  1.588710093817825E-004
                    82 -3.509004045672187E-005
                    83 -6.871115832613541E-005
                    84  5.097213644542035E-005
                    85 -2.695124852863704E-006
                    86 -6.496154104195012E-005
                    87  1.736461929654217E-005
                    88 -1.451188323388382E-005
                    89  1.399398857940444E-005
                    90 -5.128080301637941E-005
                    91 -1.068183008428241E-005
                    92 -3.096619169294266E-004
                    93 -1.766988889951285E-003
                    94  7.396598599272074E-005
                    95  8.153047523470374E-004
                    96  7.608265856548990E-004
                    97 -4.958903397395595E-005
                    98  6.477792934283568E-004
                    99  5.002362826157342E-004
                   100  8.227694132396465E-005
                   101 -1.188180884005876E-004
                   102 -3.364289883542953E-004
                   103 -3.378919724052893E-004
                   104  7.027424812763659E-004
                   105 -7.599109206255945E-005
                   106  1.691757803556033E-005
                   107 -1.858277436669058E-005
                   108  6.542080215511250E-005
                   109 -8.917565191827821E-006
                   110  1.604992662024790E-004
                   111 -1.702054386613933E-004
                   112  2.027458668196728E-005
                   113 -1.090750012052690E-004
                   114  3.871717054349175E-005
                   115  4.448945664615864E-006
                   116 -6.041047208343916E-005
                   117  2.085473899541233E-005
                   118  1.592440393754965E-005
                   119 -9.334947453114269E-006
                   120 -4.959309563775631E-005
                   121 -1.061065609569437E-005
                   122 -1.749261798860846E-004
                   123 -1.783321483471768E-004
                   124  7.005271280262973E-005
                   125  4.183143138287123E-004
                   126 -6.779055788937872E-004
                   127 -1.743367976630936E-005
                   128  2.901928764701654E-005
                   129  2.686703428214930E-004
                   130 -1.912122462370425E-005
                   131  1.953207797731282E-005
                   132  7.281070955259770E-004
                   133  1.386530616915452E-004
                   134 -2.639922739766010E-004
                   135  5.350782622181875E-006
                   136  1.282972558114625E-006
                   137 -3.202160028037465E-006
                   138 -3.531395388613504E-006
                   139  7.319459834628053E-006
                   140  7.152045096830252E-005
                   141  1.792540865594557E-004
                   142  8.524826977001752E-006
                   143 -1.782073116103783E-004
                   144 -1.475134945141533E-005
                   145 -8.600425122758562E-006
                   146 -1.633715897792241E-005
                   147  2.225399501605267E-006
                   148 -2.271586758931790E-006
                   149 -1.854502753254961E-006
                   150 -4.302299378361539E-005
                   151 -7.801028312648338E-007
                   152 -1.748534152213030E-004
                   153 -1.976869025920651E-004
                   154  5.317312439079313E-005
                   155  4.921787973492125E-004
                   156 -6.513342978005678E-004
                   157 -1.679829055237889E-005
                   158 -2.701360254426249E-005
                   159  2.189137801217126E-004
                   160 -1.907682717463527E-005
                   161 -1.153313794746242E-005
                   162  8.403983684399387E-004
                   163  1.387245135644479E-004
                   164  2.148638746109106E-004
                   165  3.528899062789004E-006
                   166  9.230379653693903E-007
                   167  2.718926548155181E-006
                   168  1.843466877209279E-007
                   169  7.542442284882575E-006
                   170  6.454823050078379E-005
                   171 -1.918556570968842E-004
                   172 -4.333105125422220E-006
                   173 -1.642061086805889E-004
                   174 -1.788275568945867E-005
                   175  9.639898822491132E-006
                   176 -1.292079156671814E-005
                   177  1.954925059385533E-006
                   178  3.231907602930006E-006
                   179  2.060439712034929E-006
                   180 -4.093624415768709E-005
                   181 -7.902372626690570E-007
                   182 -1.189961504273497E-004
                   183 -3.679188316657124E-004
                   184  2.878128285865680E-005
                   185  1.339793192477834E-004
                   186 -9.825090005933702E-006
                   187 -3.571870209938021E-005
                   188 -2.481238931044970E-006
                   189  7.684437067495759E-005
                   190  2.146372902401114E-005
                   191 -2.486151068499692E-006
                   192 -2.796138074183201E-004
                   193 -1.012263253525981E-004
                   194 -6.412961056355255E-005
                   195 -1.382235771062967E-005
                   196  7.991525503135248E-007
                   197  1.091327383772990E-007
                   198  6.265263888088678E-006
                   199 -2.604321169879693E-006
                   200 -1.080971162327490E-004
                   201  3.913389816329809E-007
                   202  1.968448931292273E-006
                   203  5.928380225619952E-005
                   204  1.488440428656187E-005
                   205 -5.385785911150620E-007
                   206 -2.434291717318129E-007
                   207  2.983058062316900E-006
                   208 -4.703422487164218E-007
                   209 -4.306557896146427E-007
                   210 -5.490103631989584E-006
                   211 -2.224968816372516E-006
                   212  3.970109039179934E-003
                   213 -2.929454202252561E-003
                   214  1.737030291893247E-004
                   215  2.200251330866888E-004
                   216  3.015079725250191E-004
                   217  3.589425568928983E-003
                   218 -2.475429532899307E-003
                   219  2.178428482459740E-004
                   220  2.648983904781382E-004
                   221 -4.449322301230886E-004
                   222 -5.960445215036770E-004
                   223 -1.940638858762437E-004
                   224 -5.744286491324854E-005
                   225  8.708318661486796E-006
                   226  1.778273989770798E-005
                   227 -5.905694696170720E-004
                   228 -2.141950794785922E-004
                   229 -6.507866969359901E-005
                   230  1.003024785813538E-005
                   231 -2.112793109721407E-005
                   232 -1.593725102444224E-004
                   233 -4.298976131505353E-004
                   234  3.640443900343123E-006
                   235 -1.102300056896622E-006
                   236 -8.558194940866409E-006
                   237 -1.459661946152308E-004
                   238 -4.387259069946276E-004
                   239  4.441841722480275E-006
                   240 -1.904222552408594E-006
                   241  1.043510654632032E-005
                   242  4.804040504591716E-005
                   243  7.433594166564298E-005
                   244  2.515140015104988E-005
                   245  1.365128599016727E-006
                   246  9.328264142882063E-007
 Sym= __2_A__
 Ene=   2.00000000000000     
 Spin= Alpha
 Occup=    1.00000000000000     
                     1 -2.442369507422458E-005
                     2 -9.240434515325273E-005
                     3  1.780294693183406E-003
                     4  1.424458046567710E-006
                     5  1.325141972705499E-003
                     6  2.116006125786630E-003
                     7  3.619003225315298E-004
                     8  2.818430967288927E-005
                     9 -1.446770938093998E-004
                    10  8.137915592264123E-005
                    11  5.567492650885390E-006
                    12 -4.979794501368148E-006
                    13  2.868856984713045E-005
                    14  1.289104412301725E-005
                    15 -7.637298646311297E-005
                    16  4.589420787363008E-007
                    17 -9.932237433840809E-007
                    18  3.320643245977414E-005
                    19 -2.723879901255925E-006
                    20  2.563769826305881E-004
                    21 -4.080056279212053E-005
                    22 -1.362973749303753E-005
                    23  6.736353313747866E-005
                    24 -5.034446011580692E-005
                    25  1.658815090446693E-006
                    26  1.420645980865649E-004
                    27 -5.894532501451703E-005
                    28  3.220306070669262E-007
                    29  8.378507116502274E-006
                    30  1.379330147973581E-004
                    31  3.305620824499232E-005
                    32   1.00098393802837     
                    33  8.850209243050973E-003
                    34  2.776869957260856E-003
                    35 -8.160241517586141E-003
                    36 -2.795211308837608E-003
                    37  6.445088380562855E-004
                    38  7.535369164678384E-006
                    39  1.146562511230023E-003
                    40 -2.063628668659915E-004
                    41 -3.067604746817427E-005
                    42  3.634601310757238E-003
                    43 -1.261879497903346E-004
                    44 -3.923062539812878E-005
                    45  2.885806988176080E-004
                    46  6.360637189821730E-006
                    47 -1.150080066395060E-006
                    48  4.460571764821950E-004
                    49 -1.881030205497700E-005
                    50 -1.063817265542825E-003
                    51 -6.107488489555029E-005
                    52  8.302859340900681E-006
                    53 -1.053001883451189E-004
                    54  1.186214326548984E-005
                    55 -1.902940034269987E-006
                    56  3.318940858838909E-004
                    57 -8.554709813098013E-006
                    58 -2.729583509264206E-006
                    59  4.058891182214408E-007
                    60  8.995373472391465E-005
                    61  1.719306359037618E-005
                    62  1.163771603421588E-002
                    63 -1.908506622593479E-003
                    64 -3.035344331583610E-004
                    65  3.128648729600059E-003
                    66 -1.435929167428986E-004
                    67  1.102923235476819E-004
                    68  2.520074629506127E-004
                    69  3.357938725853196E-005
                    70  8.818141857681293E-006
                    71  4.889029380175860E-004
                    72  1.843310294494076E-004
                    73 -2.057775005611421E-005
                    74 -1.910403912695295E-003
                    75 -1.314191747420693E-005
                    76  2.716379762492913E-005
                    77  7.306680831601272E-006
                    78 -3.715879801364882E-005
                    79 -4.655049619329723E-006
                    80 -4.426044844121341E-004
                    81 -4.635478085503321E-004
                    82  9.022883643519897E-006
                    83  7.710621305881959E-004
                    84 -4.130078637293767E-006
                    85  5.400639248721881E-005
                    86  1.132888266044548E-004
                    87  1.710462922067654E-006
                    88 -1.272065784041697E-005
                    89 -6.581139084271330E-006
                    90 -2.688556232277972E-005
                    91  4.496441259854513E-006
                    92  1.172290063605987E-002
                    93 -1.909103223825348E-003
                    94 -3.166799625314929E-004
                    95  3.213483730033990E-003
                    96 -1.493856188503684E-004
                    97  1.132994709367759E-004
                    98 -2.464959073584964E-004
                    99  2.583568547192108E-005
                   100  2.435537451739421E-006
                   101 -5.494608582208850E-004
                   102  1.224756219389678E-004
                   103 -2.411627664030480E-005
                   104  1.867277530992194E-003
                   105 -1.204977082223614E-005
                   106 -2.465764691325234E-005
                   107 -7.298523721127249E-006
                   108 -3.541277113779904E-005
                   109 -4.667602989212448E-006
                   110 -4.125486050566494E-004
                   111  4.647531463622297E-004
                   112 -4.774159146497140E-006
                   113  7.561392994147802E-004
                   114 -1.459040655243360E-006
                   115 -5.122356228268542E-005
                   116  1.101438473075837E-004
                   117  6.992683242671295E-007
                   118  1.558386272254813E-005
                   119  5.015153739565615E-006
                   120 -2.938513932179543E-005
                   121  4.268752291897777E-006
                   122 -1.677278608279093E-004
                   123 -7.309820115533320E-004
                   124  2.509374305460027E-004
                   125 -3.086060654986576E-004
                   126 -1.899937004342659E-004
                   127  2.171303516262112E-005
                   128 -4.358690192292669E-005
                   129  6.020142095645288E-004
                   130 -4.394648358456203E-006
                   131  4.372528685354450E-005
                   132  6.263033488604729E-004
                   133 -2.704295830323776E-006
                   134  3.605906002835081E-004
                   135 -6.671964450299918E-007
                   136  4.262868192029559E-005
                   137  2.561814140503704E-007
                   138 -3.248997445684578E-005
                   139 -1.282209695722929E-006
                   140  1.981318169085425E-004
                   141 -2.604671787212124E-004
                   142 -3.447074131425960E-007
                   143 -2.667441458048442E-004
                   144 -1.828455934732181E-006
                   145 -1.890532209178692E-005
                   146  1.522370482489922E-005
                   147  1.184060265449070E-007
                   148 -1.421863028483735E-005
                   149 -1.477587672604003E-006
                   150 -2.441040764628826E-005
                   151 -9.123800820028007E-007
                   152 -1.632173082334333E-004
                   153 -7.214036860184054E-004
                   154  2.541552603834709E-004
                   155 -3.163480919914505E-004
                   156 -1.905776251678655E-004
                   157  2.138457891968005E-005
                   158  4.093732807794298E-005
                   159  5.974312914265993E-004
                   160 -5.053659706141513E-006