[Molden Format]
[Atoms] AU
  N     1    7    -4.4330280600    0.1281827800   -0.0102487400        
  C     2    6    -1.7710624100   -0.0041157000    0.0026815300        
  C     3    6    -0.4266489900    0.0033399500   -2.2679035900        
  C     4    6    -0.4256282400   -0.0003339100    2.2704062200        
  C     5    6     2.1880224400    0.0032792400   -2.2551264300        
  C     6    6     2.1897831000   -0.0020872500    2.2559006900        
  C     7    6     3.5161039600   -0.0010763200    0.0000885600        
  H     8    1    -5.1430718800   -0.5555235000   -1.3962307200        
  H     9    1    -5.1942599700   -0.6020362600    1.5974072100        
  H    10    1    -1.4300327200    0.0136731500   -4.0307174300        
  H    11    1    -1.4278788900    0.0113262700    4.0339330400        
  H    12    1     3.1896739200    0.0029855100   -4.0199334100        
  H    13    1     3.1920501900   -0.0048750000    4.0204303000        
  H    14    1     5.5438478400   -0.0025640700   -0.0006264100        
[5D]
[7F]
[GTO]
  1  0
   s    12 1.00
  0.114200D+05  0.172695D-04
  0.171200D+04  0.134411D-03
  0.389300D+03  0.694561D-03
  0.110000D+03  0.278531D-02
  0.355700D+02  0.863457D-02
  0.125400D+02  0.199805D-01
  0.464400D+01  0.262908D-01
  0.129300D+01 -0.243845D-01
  0.511800D+00 -0.924934D-01
  0.178700D+00 -0.339683D+00
  0.246240D-01  0.345111D+00
  0.112530D-01  0.752750D+00
   s    10 1.00
  0.114200D+05  0.523000D-03
  0.171200D+04  0.404500D-02
  0.389300D+03  0.207750D-01
  0.110000D+03  0.807269D-01
  0.355700D+02  0.233074D+00
  0.125400D+02  0.433501D+00
  0.464400D+01  0.347472D+00
  0.129300D+01  0.412620D-01
  0.511800D+00 -0.850799D-02
  0.178700D+00  0.238400D-02
   s    10 1.00
  0.114200D+05 -0.115000D-03
  0.171200D+04 -0.895000D-03
  0.389300D+03 -0.462400D-02
  0.110000D+03 -0.185280D-01
  0.355700D+02 -0.573390D-01
  0.125400D+02 -0.132076D+00
  0.464400D+01 -0.172510D+00
  0.129300D+01  0.151814D+00
  0.511800D+00  0.599944D+00
  0.178700D+00  0.387462D+00
   s     1 1.00
  0.129300D+01  0.100000D+01
   s     1 1.00
  0.178700D+00  0.100000D+01
   p     5 1.00
  0.266300D+02  0.146700D-01
  0.594800D+01  0.917640D-01
  0.174200D+01  0.298683D+00
  0.555000D+00  0.498487D+00
  0.172500D+00  0.337023D+00
   p     1 1.00
  0.174200D+01  0.100000D+01
   p     1 1.00
  0.555000D+00  0.100000D+01
   d     1 1.00
  0.165400D+01  0.100000D+01
   d     1 1.00
  0.469000D+00  0.100000D+01
   f     1 1.00
  0.109300D+01  0.100000D+01
  
  2  0
   s    10 1.00
  0.823600D+04  0.531000D-03
  0.123500D+04  0.410800D-02
  0.280800D+03  0.210870D-01
  0.792700D+02  0.818530D-01
  0.255900D+02  0.234817D+00
  0.899700D+01  0.434401D+00
  0.331900D+01  0.346129D+00
  0.905900D+00  0.393780D-01
  0.364300D+00 -0.898300D-02
  0.128500D+00  0.238500D-02
   s    10 1.00
  0.823600D+04 -0.113000D-03
  0.123500D+04 -0.878000D-03
  0.280800D+03 -0.454000D-02
  0.792700D+02 -0.181330D-01
  0.255900D+02 -0.557600D-01
  0.899700D+01 -0.126895D+00
  0.331900D+01 -0.170352D+00
  0.905900D+00  0.140382D+00
  0.364300D+00  0.598684D+00
  0.128500D+00  0.395389D+00
   s     1 1.00
  0.905900D+00  0.100000D+01
   s     1 1.00
  0.364300D+00  0.100000D+01
   p     5 1.00
  0.187100D+02  0.140310D-01
  0.413300D+01  0.868660D-01
  0.120000D+01  0.290216D+00
  0.382700D+00  0.501008D+00
  0.120900D+00  0.343406D+00
   p     1 1.00
  0.382700D+00  0.100000D+01
   p     1 1.00
  0.120900D+00  0.100000D+01
   d     1 1.00
  0.109700D+01  0.100000D+01
   d     1 1.00
  0.318000D+00  0.100000D+01
   f     1 1.00
  0.761000D+00  0.100000D+01
  
  3  0
   s    10 1.00
  0.823600D+04  0.531000D-03
  0.123500D+04  0.410800D-02
  0.280800D+03  0.210870D-01
  0.792700D+02  0.818530D-01
  0.255900D+02  0.234817D+00
  0.899700D+01  0.434401D+00
  0.331900D+01  0.346129D+00
  0.905900D+00  0.393780D-01
  0.364300D+00 -0.898300D-02
  0.128500D+00  0.238500D-02
   s    10 1.00
  0.823600D+04 -0.113000D-03
  0.123500D+04 -0.878000D-03
  0.280800D+03 -0.454000D-02
  0.792700D+02 -0.181330D-01
  0.255900D+02 -0.557600D-01
  0.899700D+01 -0.126895D+00
  0.331900D+01 -0.170352D+00
  0.905900D+00  0.140382D+00
  0.364300D+00  0.598684D+00
  0.128500D+00  0.395389D+00
   s     1 1.00
  0.905900D+00  0.100000D+01
   s     1 1.00
  0.364300D+00  0.100000D+01
   p     5 1.00
  0.187100D+02  0.140310D-01
  0.413300D+01  0.868660D-01
  0.120000D+01  0.290216D+00
  0.382700D+00  0.501008D+00
  0.120900D+00  0.343406D+00
   p     1 1.00
  0.382700D+00  0.100000D+01
   p     1 1.00
  0.120900D+00  0.100000D+01
   d     1 1.00
  0.109700D+01  0.100000D+01
   d     1 1.00
  0.318000D+00  0.100000D+01
   f     1 1.00
  0.761000D+00  0.100000D+01
  
  4  0
   s    10 1.00
  0.823600D+04  0.531000D-03
  0.123500D+04  0.410800D-02
  0.280800D+03  0.210870D-01
  0.792700D+02  0.818530D-01
  0.255900D+02  0.234817D+00
  0.899700D+01  0.434401D+00
  0.331900D+01  0.346129D+00
  0.905900D+00  0.393780D-01
  0.364300D+00 -0.898300D-02
  0.128500D+00  0.238500D-02
   s    10 1.00
  0.823600D+04 -0.113000D-03
  0.123500D+04 -0.878000D-03
  0.280800D+03 -0.454000D-02
  0.792700D+02 -0.181330D-01
  0.255900D+02 -0.557600D-01
  0.899700D+01 -0.126895D+00
  0.331900D+01 -0.170352D+00
  0.905900D+00  0.140382D+00
  0.364300D+00  0.598684D+00
  0.128500D+00  0.395389D+00
   s     1 1.00
  0.905900D+00  0.100000D+01
   s     1 1.00
  0.364300D+00  0.100000D+01
   p     5 1.00
  0.187100D+02  0.140310D-01
  0.413300D+01  0.868660D-01
  0.120000D+01  0.290216D+00
  0.382700D+00  0.501008D+00
  0.120900D+00  0.343406D+00
   p     1 1.00
  0.382700D+00  0.100000D+01
   p     1 1.00
  0.120900D+00  0.100000D+01
   d     1 1.00
  0.109700D+01  0.100000D+01
   d     1 1.00
  0.318000D+00  0.100000D+01
   f     1 1.00
  0.761000D+00  0.100000D+01
  
  5  0
   s    10 1.00
  0.823600D+04  0.531000D-03
  0.123500D+04  0.410800D-02
  0.280800D+03  0.210870D-01
  0.792700D+02  0.818530D-01
  0.255900D+02  0.234817D+00
  0.899700D+01  0.434401D+00
  0.331900D+01  0.346129D+00
  0.905900D+00  0.393780D-01
  0.364300D+00 -0.898300D-02
  0.128500D+00  0.238500D-02
   s    10 1.00
  0.823600D+04 -0.113000D-03
  0.123500D+04 -0.878000D-03
  0.280800D+03 -0.454000D-02
  0.792700D+02 -0.181330D-01
  0.255900D+02 -0.557600D-01
  0.899700D+01 -0.126895D+00
  0.331900D+01 -0.170352D+00
  0.905900D+00  0.140382D+00
  0.364300D+00  0.598684D+00
  0.128500D+00  0.395389D+00
   s     1 1.00
  0.905900D+00  0.100000D+01
   s     1 1.00
  0.364300D+00  0.100000D+01
   p     5 1.00
  0.187100D+02  0.140310D-01
  0.413300D+01  0.868660D-01
  0.120000D+01  0.290216D+00
  0.382700D+00  0.501008D+00
  0.120900D+00  0.343406D+00
   p     1 1.00
  0.382700D+00  0.100000D+01
   p     1 1.00
  0.120900D+00  0.100000D+01
   d     1 1.00
  0.109700D+01  0.100000D+01
   d     1 1.00
  0.318000D+00  0.100000D+01
   f     1 1.00
  0.761000D+00  0.100000D+01
  
  6  0
   s    10 1.00
  0.823600D+04  0.531000D-03
  0.123500D+04  0.410800D-02
  0.280800D+03  0.210870D-01
  0.792700D+02  0.818530D-01
  0.255900D+02  0.234817D+00
  0.899700D+01  0.434401D+00
  0.331900D+01  0.346129D+00
  0.905900D+00  0.393780D-01
  0.364300D+00 -0.898300D-02
  0.128500D+00  0.238500D-02
   s    10 1.00
  0.823600D+04 -0.113000D-03
  0.123500D+04 -0.878000D-03
  0.280800D+03 -0.454000D-02
  0.792700D+02 -0.181330D-01
  0.255900D+02 -0.557600D-01
  0.899700D+01 -0.126895D+00
  0.331900D+01 -0.170352D+00
  0.905900D+00  0.140382D+00
  0.364300D+00  0.598684D+00
  0.128500D+00  0.395389D+00
   s     1 1.00
  0.905900D+00  0.100000D+01
   s     1 1.00
  0.364300D+00  0.100000D+01
   p     5 1.00
  0.187100D+02  0.140310D-01
  0.413300D+01  0.868660D-01
  0.120000D+01  0.290216D+00
  0.382700D+00  0.501008D+00
  0.120900D+00  0.343406D+00
   p     1 1.00
  0.382700D+00  0.100000D+01
   p     1 1.00
  0.120900D+00  0.100000D+01
   d     1 1.00
  0.109700D+01  0.100000D+01
   d     1 1.00
  0.318000D+00  0.100000D+01
   f     1 1.00
  0.761000D+00  0.100000D+01
  
  7  0
   s    10 1.00
  0.823600D+04  0.531000D-03
  0.123500D+04  0.410800D-02
  0.280800D+03  0.210870D-01
  0.792700D+02  0.818530D-01
  0.255900D+02  0.234817D+00
  0.899700D+01  0.434401D+00
  0.331900D+01  0.346129D+00
  0.905900D+00  0.393780D-01
  0.364300D+00 -0.898300D-02
  0.128500D+00  0.238500D-02
   s    10 1.00
  0.823600D+04 -0.113000D-03
  0.123500D+04 -0.878000D-03
  0.280800D+03 -0.454000D-02
  0.792700D+02 -0.181330D-01
  0.255900D+02 -0.557600D-01
  0.899700D+01 -0.126895D+00
  0.331900D+01 -0.170352D+00
  0.905900D+00  0.140382D+00
  0.364300D+00  0.598684D+00
  0.128500D+00  0.395389D+00
   s     1 1.00
  0.905900D+00  0.100000D+01
   s     1 1.00
  0.364300D+00  0.100000D+01
   p     5 1.00
  0.187100D+02  0.140310D-01
  0.413300D+01  0.868660D-01
  0.120000D+01  0.290216D+00
  0.382700D+00  0.501008D+00
  0.120900D+00  0.343406D+00
   p     1 1.00
  0.382700D+00  0.100000D+01
   p     1 1.00
  0.120900D+00  0.100000D+01
   d     1 1.00
  0.109700D+01  0.100000D+01
   d     1 1.00
  0.318000D+00  0.100000D+01
   f     1 1.00
  0.761000D+00  0.100000D+01
  
  8  0
   s     4 1.00
  0.130100D+02  0.196850D-01
  0.196200D+01  0.137977D+00
  0.444600D+00  0.478148D+00
  0.122000D+00  0.501240D+00
   s     1 1.00
  0.122000D+00  0.100000D+01
   p     1 1.00
  0.727000D+00  0.100000D+01
  
  9  0
   s     4 1.00
  0.130100D+02  0.196850D-01
  0.196200D+01  0.137977D+00
  0.444600D+00  0.478148D+00
  0.122000D+00  0.501240D+00
   s     1 1.00
  0.122000D+00  0.100000D+01
   p     1 1.00
  0.727000D+00  0.100000D+01
  
 10  0
   s     4 1.00
  0.130100D+02  0.196850D-01
  0.196200D+01  0.137977D+00
  0.444600D+00  0.478148D+00
  0.122000D+00  0.501240D+00
   s     1 1.00
  0.122000D+00  0.100000D+01
   p     1 1.00
  0.727000D+00  0.100000D+01
  
 11  0
   s     4 1.00
  0.130100D+02  0.196850D-01
  0.196200D+01  0.137977D+00
  0.444600D+00  0.478148D+00
  0.122000D+00  0.501240D+00
   s     1 1.00
  0.122000D+00  0.100000D+01
   p     1 1.00
  0.727000D+00  0.100000D+01
  
 12  0
   s     4 1.00
  0.130100D+02  0.196850D-01
  0.196200D+01  0.137977D+00
  0.444600D+00  0.478148D+00
  0.122000D+00  0.501240D+00
   s     1 1.00
  0.122000D+00  0.100000D+01
   p     1 1.00
  0.727000D+00  0.100000D+01
  
 13  0
   s     4 1.00
  0.130100D+02  0.196850D-01
  0.196200D+01  0.137977D+00
  0.444600D+00  0.478148D+00
  0.122000D+00  0.501240D+00
   s     1 1.00
  0.122000D+00  0.100000D+01
   p     1 1.00
  0.727000D+00  0.100000D+01
  
 14  0
   s     4 1.00
  0.130100D+02  0.196850D-01
  0.196200D+01  0.137977D+00
  0.444600D+00  0.478148D+00
  0.122000D+00  0.501240D+00
   s     1 1.00
  0.122000D+00  0.100000D+01
   p     1 1.00
  0.727000D+00  0.100000D+01
  
[MO]
 Sym= __1_A__
 Ene=  0.000000000000000E+000
 Spin= Alpha
 Occup=    2.00000000000000     
                     1  2.031731949657918E-004
                     2  0.997861177088514     
                     3  6.756441030622226E-003
                     4  2.143667427488470E-003
                     5  4.279887683921615E-003
                     6  4.908520147729351E-003
                     7 -3.897600163741176E-003
                     8 -6.096284410081826E-005
                     9 -6.276578134984725E-004
                    10  2.877885391793688E-005
                    11 -1.109640259580032E-004
                    12 -1.066492041143564E-003
                    13  2.471462291699114E-003
                    14 -1.988939678211951E-004
                    15  8.519778180206836E-005
                    16  8.947901145450549E-005
                    17  9.696557539450250E-005
                    18  1.135936796894339E-004
                    19  1.152935930137231E-004
                    20 -3.379397156825903E-004
                    21  8.994732033477708E-005
                    22  7.440694956696109E-005
                    23  8.530098955615383E-006
                    24 -4.084669238316280E-004
                    25  1.462091874465464E-005
                    26 -2.420624291718005E-004
                    27 -1.519458306496924E-004
                    28  8.555460649332683E-006
                    29 -7.225766032258828E-005
                    30 -1.175540142029022E-004
                    31 -7.040610559016805E-005
                    32 -3.764379783026381E-004
                    33  1.399471019864909E-003
                    34  2.121860235845236E-004
                    35 -1.391182501079528E-004
                    36 -5.245933873804554E-003
                    37  6.313599602860020E-005
                    38  5.481081927302492E-005
                    39  1.446753680669686E-004
                    40 -1.130580969620569E-005
                    41 -2.789766426584205E-005
                    42  4.595952043569804E-003
                    43  7.591716384422265E-004
                    44  1.174954857637514E-005
                    45 -2.483249068517149E-004
                    46  1.185394047262786E-005
                    47  2.031901537869444E-006
                    48  2.223845160196278E-004
                    49  4.661807550127071E-005
                    50  3.393635185973248E-004
                    51 -2.044730072936953E-005
                    52 -2.459966586836335E-005
                    53  7.503295877935431E-005
                    54 -3.191615561535323E-004
                    55 -4.676039352351096E-006
                    56 -8.566224853813153E-005
                    57  1.325556166990858E-005
                    58 -7.951841424839511E-006
                    59 -3.787875673020377E-006
                    60 -3.466762050352971E-005
                    61  3.589669906213729E-005
                    62 -3.329638197916777E-004
                    63 -1.913135086556017E-003
                    64  7.386587139771447E-005
                    65  8.603714375872893E-004
                    66  8.104934680687095E-004
                    67 -3.822752100979726E-005
                    68 -7.034656426515619E-004
                    69  5.689456929964530E-004
                    70  5.836253241105800E-005
                    71  8.362579504539345E-005
                    72 -4.682122163950812E-004
                    73 -3.430054789501966E-004
                    74 -6.482824507290663E-004
                    75 -8.019816674011775E-005
                    76 -1.168447447847127E-005
                    77  1.769192983673704E-005
                    78  6.346965671271111E-005
                    79 -8.128303383311267E-006
                    80  1.259910473126849E-004
                    81  1.588710097758051E-004
                    82 -3.509004048534377E-005
                    83 -6.871115845186742E-005
                    84  5.097213645711401E-005
                    85 -2.695124908504596E-006
                    86 -6.496154086737432E-005
                    87  1.736461929565790E-005
                    88 -1.451188350117618E-005
                    89  1.399398858588576E-005
                    90 -5.128080317082508E-005
                    91 -1.068183008260855E-005
                    92 -3.096619181354106E-004
                    93 -1.766988860527867E-003
                    94  7.396598555901638E-005
                    95  8.153047507528673E-004
                    96  7.608265501446973E-004
                    97 -4.958903378353371E-005
                    98  6.477792554151416E-004
                    99  5.002362863266617E-004
                   100  8.227694140872925E-005
                   101 -1.188180852953403E-004
                   102 -3.364289788231495E-004
                   103 -3.378919725354732E-004
                   104  7.027424898401258E-004
                   105 -7.599109102688556E-005
                   106  1.691757943619367E-005
                   107 -1.858277437670336E-005
                   108  6.542080216734850E-005
                   109 -8.917565198756024E-006
                   110  1.604992663090893E-004
                   111 -1.702054367690613E-004
                   112  2.027458665677527E-005
                   113 -1.090750002152368E-004
                   114  3.871717054883103E-005
                   115  4.448945764764198E-006
                   116 -6.041047271007933E-005
                   117  2.085473900050934E-005
                   118  1.592440357041924E-005
                   119 -9.334947444143277E-006
                   120 -4.959309549277849E-005
                   121 -1.061065609231767E-005
                   122 -1.749261801938163E-004
                   123 -1.783321493686513E-004
                   124  7.005271289432300E-005
                   125  4.183143142105795E-004
                   126 -6.779055891174584E-004
                   127 -1.743367973515101E-005
                   128  2.901928763856708E-005
                   129  2.686703437568359E-004
                   130 -1.912122461317228E-005
                   131  1.953207788880864E-005
                   132  7.281070987251427E-004
                   133  1.386530616240195E-004
                   134 -2.639922714543305E-004
                   135  5.350782273710473E-006
                   136  1.282972798283908E-006
                   137 -3.202160028958995E-006
                   138 -3.531395186702674E-006
                   139  7.319459827304488E-006
                   140  7.152045127050160E-005
                   141  1.792540863228511E-004
                   142  8.524826981795987E-006
                   143 -1.782073117136743E-004
                   144 -1.475134944963828E-005
                   145 -8.600425146290240E-006
                   146 -1.633715896680430E-005
                   147  2.225399500577398E-006
                   148 -2.271586797085532E-006
                   149 -1.854502755117823E-006
                   150 -4.302299372538398E-005
                   151 -7.801028280610603E-007
                   152 -1.748534153033065E-004
                   153 -1.976869205523622E-004
                   154  5.317312494830284E-005
                   155  4.921787976451629E-004
                   156 -6.513342853760950E-004
                   157 -1.679829054549051E-005
                   158 -2.701360195814908E-005
                   159  2.189137803471968E-004
                   160 -1.907682719179796E-005
                   161 -1.153313823835649E-005
                   162  8.403983693959876E-004
                   163  1.387245136130685E-004
                   164  2.148638757186970E-004
                   165  3.528899208568453E-006
                   166  9.230384450955997E-007
                   167  2.718926548643236E-006
                   168  1.843462671861956E-007
                   169  7.542442284224602E-006
                   170  6.454823094000884E-005
                   171 -1.918556559267747E-004
                   172 -4.333105126340832E-006
                   173 -1.642061095119881E-004
                   174 -1.788275569970945E-005
                   175  9.639898643843748E-006
                   176 -1.292079185092581E-005
                   177  1.954925060688553E-006
                   178  3.231907465545052E-006
                   179  2.060439713517463E-006
                   180 -4.093624439014617E-005
                   181 -7.902372652885775E-007
                   182 -1.189961507162025E-004
                   183 -3.679188349457820E-004
                   184  2.878128289958540E-005
                   185  1.339793204392823E-004
                   186 -9.825083644488944E-006
                   187 -3.571870216258151E-005
                   188 -2.481238544468752E-006
                   189  7.684437023138533E-005
                   190  2.146372902252122E-005
                   191 -2.486151015938631E-006
                   192 -2.796138081776141E-004
                   193 -1.012263253733102E-004
                   194 -6.412961116717935E-005
                   195 -1.382235788232316E-005
                   196  7.991526175488077E-007
                   197  1.091327402770821E-007
                   198  6.265263944287814E-006
                   199 -2.604321170275622E-006
                   200 -1.080971159686966E-004
                   201  3.913392679892843E-007
                   202  1.968448925910846E-006
                   203  5.928380204527514E-005
                   204  1.488440428646740E-005
                   205 -5.385786310707174E-007
                   206 -2.434291539821101E-007
                   207  2.983058061858842E-006
                   208 -4.703422584543278E-007
                   209 -4.306557901158151E-007
                   210 -5.490103666005588E-006
                   211 -2.224968816555620E-006
                   212  3.970109041118147E-003
                   213 -2.929454200319410E-003
                   214  1.737030290774017E-004
                   215  2.200251330770573E-004
                   216  3.015079724552317E-004
                   217  3.589425567070763E-003
                   218 -2.475429533867934E-003
                   219  2.178428483594103E-004
                   220  2.648983905355442E-004
                   221 -4.449322301999274E-004
                   222 -5.960445157594340E-004
                   223 -1.940638881320534E-004
                   224 -5.744286454092664E-005
                   225  8.708318656949809E-006
                   226  1.778273981007816E-005
                   227 -5.905694735934984E-004
                   228 -2.141950816992781E-004
                   229 -6.507867023004771E-005
                   230  1.003024787381064E-005
                   231 -2.112793146969087E-005
                   232 -1.593725174610439E-004
                   233 -4.298976117473852E-004
                   234  3.640443935240949E-006
                   235 -1.102300054324063E-006
                   236 -8.558195335353974E-006
                   237 -1.459661929430816E-004
                   238 -4.387259066034384E-004
                   239  4.441841992824975E-006
                   240 -1.904222554553013E-006
                   241  1.043510654949457E-005
                   242  4.804041027626977E-005
                   243  7.433593916353438E-005
                   244  2.515139993322116E-005
                   245  1.365128597755612E-006
                   246  9.328264493631719E-007
 Sym= __2_A__
 Ene=  0.000000000000000E+000
 Spin= Alpha
 Occup=    2.00000000000000     
                     1 -2.442369505698524E-005
                     2 -9.240432626938531E-005
                     3  1.780294693642353E-003
                     4  1.424458078629492E-006
                     5  1.325141972361182E-003
                     6  2.116006125849919E-003
                     7  3.619003226514689E-004
                     8  2.818430962408852E-005
                     9 -1.446770937489122E-004
                    10  8.137915588826636E-005
                    11  5.567492726581955E-006
                    12 -4.979794522537577E-006
                    13  2.868856986294026E-005
                    14  1.289104393331643E-005
                    15 -7.637298646082742E-005
                    16  4.589421095967022E-007
                    17 -9.932237373375252E-007
                    18  3.320643247306528E-005
                    19 -2.723879895564682E-006
                    20  2.563769825758466E-004
                    21 -4.080056295138703E-005
                    22 -1.362973748919602E-005
                    23  6.736353316164020E-005
                    24 -5.034446013621995E-005
                    25  1.658815060797019E-006
                    26  1.420645980823720E-004
                    27 -5.894532501696331E-005
                    28  3.220305869639288E-007
                    29  8.378507120587646E-006
                    30  1.379330147908347E-004
                    31  3.305620824438159E-005
                    32   1.00098393802706     
                    33  8.850209250229897E-003
                    34  2.776869957162031E-003
                    35 -8.160241517635067E-003
                    36 -2.795211305847124E-003
                    37  6.445088381716439E-004
                    38  7.535372157146735E-006
                    39  1.146562511129636E-003
                    40 -2.063628668732370E-004
                    41 -3.067604708290938E-005
                    42  3.634601310683719E-003
                    43 -1.261879497583987E-004
                    44 -3.923062717368645E-005
                    45  2.885806989565730E-004
                    46  6.360637320486704E-006
                    47 -1.150080067825520E-006
                    48  4.460571765408000E-004
                    49 -1.881030205318018E-005
                    50 -1.063817265379015E-003
                    51 -6.107488527037074E-005
                    52  8.302859367219751E-006
                    53 -1.053001881507547E-004
                    54  1.186214326048427E-005
                    55 -1.902939992970085E-006
                    56  3.318940860036174E-004
                    57 -8.554709811380042E-006
                    58 -2.729583548521824E-006
                    59  4.058891122632785E-007
                    60  8.995373472624530E-005
                    61  1.719306359809232E-005
                    62  1.163771557413590E-002
                    63 -1.908506625750511E-003
                    64 -3.035344345035068E-004
                    65  3.128648733498820E-003
                    66 -1.435929172000032E-004
                    67  1.102923236085806E-004
                    68  2.520074648124054E-004
                    69  3.357938777491796E-005
                    70  8.818141854859930E-006
                    71  4.889029379252741E-004
                    72  1.843310300318967E-004
                    73 -2.057775006914612E-005
                    74 -1.910403914552432E-003
                    75 -1.314191750239240E-005
                    76  2.716379762016489E-005
                    77  7.306680834491401E-006
                    78 -3.715879821245626E-005
                    79 -4.655049619041986E-006
                    80 -4.426044845169730E-004
                    81 -4.635478089483064E-004
                    82  9.022883648637827E-006
                    83  7.710621309888494E-004
                    84 -4.130078644899746E-006
                    85  5.400639244920468E-005
                    86  1.132888266833039E-004
                    87  1.710462921963752E-006
                    88 -1.272065780673429E-005
                    89 -6.581139086460061E-006
                    90 -2.688556233061977E-005
                    91  4.496441260253568E-006
                    92  1.172290117553191E-002
                    93 -1.909103215183464E-003
                    94 -3.166799609807283E-004
                    95  3.213483725620278E-003
                    96 -1.493856212254876E-004
                    97  1.132994709732783E-004
                    98 -2.464959119604444E-004
                    99  2.583568566662757E-005
                   100  2.435537454790592E-006
                   101 -5.494608577056491E-004
                   102  1.224756227896274E-004
                   103 -2.411627665473341E-005
                   104  1.867277532104764E-003
                   105 -1.204977059468863E-005
                   106 -2.465764672489880E-005
                   107 -7.298523723154207E-006
                   108 -3.541277088398830E-005
                   109 -4.667602991727224E-006
                   110 -4.125486048967150E-004
                   111  4.647531461345242E-004
                   112 -4.774159137765610E-006
                   113  7.561392992067746E-004
                   114 -1.459040642334513E-006
                   115 -5.122356227902927E-005
                   116  1.101438470725531E-004
                   117  6.992683262164555E-007
                   118  1.558386273122881E-005
                   119  5.015153737066762E-006
                   120 -2.938513934222169E-005
                   121  4.268752292114041E-006
                   122 -1.677278705831239E-004
                   123 -7.309820127362470E-004
                   124  2.509374307588181E-004
                   125 -3.086060662754658E-004
                   126 -1.899937006379501E-004
                   127  2.171303516921201E-005
                   128 -4.358690237705555E-005
                   129  6.020142100741605E-004
                   130 -4.394648356790056E-006
                   131  4.372528683157406E-005
                   132  6.263033492941708E-004
                   133 -2.704295832566419E-006
                   134  3.605906005572149E-004
                   135 -6.671964603947679E-007
                   136  4.262868189093888E-005
                   137  2.561814141590560E-007
                   138 -3.248997445268956E-005
                   139 -1.282209695952699E-006
                   140  1.981318169104468E-004
                   141 -2.604671791346453E-004
                   142 -3.447074142352679E-007
                   143 -2.667441460665154E-004
                   144 -1.828455940407945E-006
                   145 -1.890532206882178E-005
                   146  1.522370485982865E-005
                   147  1.184060264862472E-007
                   148 -1.421863029503766E-005
                   149 -1.477587673369589E-006
                   150 -2.441040760780799E-005
                   151 -9.123800814977757E-007
                   152 -1.632172923468727E-004
                   153 -7.214036879607733E-004
                   154  2.541552603017381E-004
                   155 -3.163480906844909E-004
                   156 -1.905776255705396E-004
                   157  2.138457892999901E-005
                   158  4.093732781304308E-005
                   159  5.974312913032976E-004
                   160 -5.053659708071742E-006