[Molden Format]
[Atoms] AU
  N     1    7     0.0000000000   -4.2907334100    0.0000000000        
  C     2    6     0.0000000000   -1.7772236300    0.0000000000        
  C     3    6    -2.3389203600   -0.4111016300    0.0000000000        
  C     4    6     2.3389203600   -0.4111016300    0.0000000000        
  C     5    6    -2.2998668500    2.1639215300    0.0000000000        
  C     6    6     2.2998668500    2.1639215300    0.0000000000        
  C     7    6     0.0000000000    3.4755251800    0.0000000000        
  H     8    1    -2.7341110200   -5.9774504400    0.0000000000        
  H     9    1     2.2516208400   -5.6797945000    0.0000000000        
  H    10    1    -4.0745407300   -1.4447408500    0.0000000000        
  H    11    1     4.0745407300   -1.4447408500    0.0000000000        
  H    12    1    -4.0420632100    3.1963889500    0.0000000000        
  H    13    1     4.0420632100    3.1963889500    0.0000000000        
  H    14    1     0.0000000000    5.5020335600    0.0000000000        
[5D]
[7F]
[GTO]
  1  0
   s    12 1.00
  0.114200D+05  0.172695D-04
  0.171200D+04  0.134411D-03
  0.389300D+03  0.694561D-03
  0.110000D+03  0.278531D-02
  0.355700D+02  0.863457D-02
  0.125400D+02  0.199805D-01
  0.464400D+01  0.262908D-01
  0.129300D+01 -0.243845D-01
  0.511800D+00 -0.924934D-01
  0.178700D+00 -0.339683D+00
  0.246240D-01  0.345111D+00
  0.112530D-01  0.752750D+00
   s    10 1.00
  0.114200D+05  0.523000D-03
  0.171200D+04  0.404500D-02
  0.389300D+03  0.207750D-01
  0.110000D+03  0.807269D-01
  0.355700D+02  0.233074D+00
  0.125400D+02  0.433501D+00
  0.464400D+01  0.347472D+00
  0.129300D+01  0.412620D-01
  0.511800D+00 -0.850799D-02
  0.178700D+00  0.238400D-02
   s    10 1.00
  0.114200D+05 -0.115000D-03
  0.171200D+04 -0.895000D-03
  0.389300D+03 -0.462400D-02
  0.110000D+03 -0.185280D-01
  0.355700D+02 -0.573390D-01
  0.125400D+02 -0.132076D+00
  0.464400D+01 -0.172510D+00
  0.129300D+01  0.151814D+00
  0.511800D+00  0.599944D+00
  0.178700D+00  0.387462D+00
   s     1 1.00
  0.129300D+01  0.100000D+01
   s     1 1.00
  0.178700D+00  0.100000D+01
   p     5 1.00
  0.266300D+02  0.146700D-01
  0.594800D+01  0.917640D-01
  0.174200D+01  0.298683D+00
  0.555000D+00  0.498487D+00
  0.172500D+00  0.337023D+00
   p     1 1.00
  0.174200D+01  0.100000D+01
   p     1 1.00
  0.555000D+00  0.100000D+01
   d     1 1.00
  0.165400D+01  0.100000D+01
   d     1 1.00
  0.469000D+00  0.100000D+01
   f     1 1.00
  0.109300D+01  0.100000D+01
  
  2  0
   s    10 1.00
  0.823600D+04  0.531000D-03
  0.123500D+04  0.410800D-02
  0.280800D+03  0.210870D-01
  0.792700D+02  0.818530D-01
  0.255900D+02  0.234817D+00
  0.899700D+01  0.434401D+00
  0.331900D+01  0.346129D+00
  0.905900D+00  0.393780D-01
  0.364300D+00 -0.898300D-02
  0.128500D+00  0.238500D-02
   s    10 1.00
  0.823600D+04 -0.113000D-03
  0.123500D+04 -0.878000D-03
  0.280800D+03 -0.454000D-02
  0.792700D+02 -0.181330D-01
  0.255900D+02 -0.557600D-01
  0.899700D+01 -0.126895D+00
  0.331900D+01 -0.170352D+00
  0.905900D+00  0.140382D+00
  0.364300D+00  0.598684D+00
  0.128500D+00  0.395389D+00
   s     1 1.00
  0.905900D+00  0.100000D+01
   s     1 1.00
  0.364300D+00  0.100000D+01
   p     5 1.00
  0.187100D+02  0.140310D-01
  0.413300D+01  0.868660D-01
  0.120000D+01  0.290216D+00
  0.382700D+00  0.501008D+00
  0.120900D+00  0.343406D+00
   p     1 1.00
  0.382700D+00  0.100000D+01
   p     1 1.00
  0.120900D+00  0.100000D+01
   d     1 1.00
  0.109700D+01  0.100000D+01
   d     1 1.00
  0.318000D+00  0.100000D+01
   f     1 1.00
  0.761000D+00  0.100000D+01
  
  3  0
   s    10 1.00
  0.823600D+04  0.531000D-03
  0.123500D+04  0.410800D-02
  0.280800D+03  0.210870D-01
  0.792700D+02  0.818530D-01
  0.255900D+02  0.234817D+00
  0.899700D+01  0.434401D+00
  0.331900D+01  0.346129D+00
  0.905900D+00  0.393780D-01
  0.364300D+00 -0.898300D-02
  0.128500D+00  0.238500D-02
   s    10 1.00
  0.823600D+04 -0.113000D-03
  0.123500D+04 -0.878000D-03
  0.280800D+03 -0.454000D-02
  0.792700D+02 -0.181330D-01
  0.255900D+02 -0.557600D-01
  0.899700D+01 -0.126895D+00
  0.331900D+01 -0.170352D+00
  0.905900D+00  0.140382D+00
  0.364300D+00  0.598684D+00
  0.128500D+00  0.395389D+00
   s     1 1.00
  0.905900D+00  0.100000D+01
   s     1 1.00
  0.364300D+00  0.100000D+01
   p     5 1.00
  0.187100D+02  0.140310D-01
  0.413300D+01  0.868660D-01
  0.120000D+01  0.290216D+00
  0.382700D+00  0.501008D+00
  0.120900D+00  0.343406D+00
   p     1 1.00
  0.382700D+00  0.100000D+01
   p     1 1.00
  0.120900D+00  0.100000D+01
   d     1 1.00
  0.109700D+01  0.100000D+01
   d     1 1.00
  0.318000D+00  0.100000D+01
   f     1 1.00
  0.761000D+00  0.100000D+01
  
  4  0
   s    10 1.00
  0.823600D+04  0.531000D-03
  0.123500D+04  0.410800D-02
  0.280800D+03  0.210870D-01
  0.792700D+02  0.818530D-01
  0.255900D+02  0.234817D+00
  0.899700D+01  0.434401D+00
  0.331900D+01  0.346129D+00
  0.905900D+00  0.393780D-01
  0.364300D+00 -0.898300D-02
  0.128500D+00  0.238500D-02
   s    10 1.00
  0.823600D+04 -0.113000D-03
  0.123500D+04 -0.878000D-03
  0.280800D+03 -0.454000D-02
  0.792700D+02 -0.181330D-01
  0.255900D+02 -0.557600D-01
  0.899700D+01 -0.126895D+00
  0.331900D+01 -0.170352D+00
  0.905900D+00  0.140382D+00
  0.364300D+00  0.598684D+00
  0.128500D+00  0.395389D+00
   s     1 1.00
  0.905900D+00  0.100000D+01
   s     1 1.00
  0.364300D+00  0.100000D+01
   p     5 1.00
  0.187100D+02  0.140310D-01
  0.413300D+01  0.868660D-01
  0.120000D+01  0.290216D+00
  0.382700D+00  0.501008D+00
  0.120900D+00  0.343406D+00
   p     1 1.00
  0.382700D+00  0.100000D+01
   p     1 1.00
  0.120900D+00  0.100000D+01
   d     1 1.00
  0.109700D+01  0.100000D+01
   d     1 1.00
  0.318000D+00  0.100000D+01
   f     1 1.00
  0.761000D+00  0.100000D+01
  
  5  0
   s    10 1.00
  0.823600D+04  0.531000D-03
  0.123500D+04  0.410800D-02
  0.280800D+03  0.210870D-01
  0.792700D+02  0.818530D-01
  0.255900D+02  0.234817D+00
  0.899700D+01  0.434401D+00
  0.331900D+01  0.346129D+00
  0.905900D+00  0.393780D-01
  0.364300D+00 -0.898300D-02
  0.128500D+00  0.238500D-02
   s    10 1.00
  0.823600D+04 -0.113000D-03
  0.123500D+04 -0.878000D-03
  0.280800D+03 -0.454000D-02
  0.792700D+02 -0.181330D-01
  0.255900D+02 -0.557600D-01
  0.899700D+01 -0.126895D+00
  0.331900D+01 -0.170352D+00
  0.905900D+00  0.140382D+00
  0.364300D+00  0.598684D+00
  0.128500D+00  0.395389D+00
   s     1 1.00
  0.905900D+00  0.100000D+01
   s     1 1.00
  0.364300D+00  0.100000D+01
   p     5 1.00
  0.187100D+02  0.140310D-01
  0.413300D+01  0.868660D-01
  0.120000D+01  0.290216D+00
  0.382700D+00  0.501008D+00
  0.120900D+00  0.343406D+00
   p     1 1.00
  0.382700D+00  0.100000D+01
   p     1 1.00
  0.120900D+00  0.100000D+01
   d     1 1.00
  0.109700D+01  0.100000D+01
   d     1 1.00
  0.318000D+00  0.100000D+01
   f     1 1.00
  0.761000D+00  0.100000D+01
  
  6  0
   s    10 1.00
  0.823600D+04  0.531000D-03
  0.123500D+04  0.410800D-02
  0.280800D+03  0.210870D-01
  0.792700D+02  0.818530D-01
  0.255900D+02  0.234817D+00
  0.899700D+01  0.434401D+00
  0.331900D+01  0.346129D+00
  0.905900D+00  0.393780D-01
  0.364300D+00 -0.898300D-02
  0.128500D+00  0.238500D-02
   s    10 1.00
  0.823600D+04 -0.113000D-03
  0.123500D+04 -0.878000D-03
  0.280800D+03 -0.454000D-02
  0.792700D+02 -0.181330D-01
  0.255900D+02 -0.557600D-01
  0.899700D+01 -0.126895D+00
  0.331900D+01 -0.170352D+00
  0.905900D+00  0.140382D+00
  0.364300D+00  0.598684D+00
  0.128500D+00  0.395389D+00
   s     1 1.00
  0.905900D+00  0.100000D+01
   s     1 1.00
  0.364300D+00  0.100000D+01
   p     5 1.00
  0.187100D+02  0.140310D-01
  0.413300D+01  0.868660D-01
  0.120000D+01  0.290216D+00
  0.382700D+00  0.501008D+00
  0.120900D+00  0.343406D+00
   p     1 1.00
  0.382700D+00  0.100000D+01
   p     1 1.00
  0.120900D+00  0.100000D+01
   d     1 1.00
  0.109700D+01  0.100000D+01
   d     1 1.00
  0.318000D+00  0.100000D+01
   f     1 1.00
  0.761000D+00  0.100000D+01
  
  7  0
   s    10 1.00
  0.823600D+04  0.531000D-03
  0.123500D+04  0.410800D-02
  0.280800D+03  0.210870D-01
  0.792700D+02  0.818530D-01
  0.255900D+02  0.234817D+00
  0.899700D+01  0.434401D+00
  0.331900D+01  0.346129D+00
  0.905900D+00  0.393780D-01
  0.364300D+00 -0.898300D-02
  0.128500D+00  0.238500D-02
   s    10 1.00
  0.823600D+04 -0.113000D-03
  0.123500D+04 -0.878000D-03
  0.280800D+03 -0.454000D-02
  0.792700D+02 -0.181330D-01
  0.255900D+02 -0.557600D-01
  0.899700D+01 -0.126895D+00
  0.331900D+01 -0.170352D+00
  0.905900D+00  0.140382D+00
  0.364300D+00  0.598684D+00
  0.128500D+00  0.395389D+00
   s     1 1.00
  0.905900D+00  0.100000D+01
   s     1 1.00
  0.364300D+00  0.100000D+01
   p     5 1.00
  0.187100D+02  0.140310D-01
  0.413300D+01  0.868660D-01
  0.120000D+01  0.290216D+00
  0.382700D+00  0.501008D+00
  0.120900D+00  0.343406D+00
   p     1 1.00
  0.382700D+00  0.100000D+01
   p     1 1.00
  0.120900D+00  0.100000D+01
   d     1 1.00
  0.109700D+01  0.100000D+01
   d     1 1.00
  0.318000D+00  0.100000D+01
   f     1 1.00
  0.761000D+00  0.100000D+01
  
  8  0
   s     4 1.00
  0.130100D+02  0.196850D-01
  0.196200D+01  0.137977D+00
  0.444600D+00  0.478148D+00
  0.122000D+00  0.501240D+00
   s     1 1.00
  0.122000D+00  0.100000D+01
   p     1 1.00
  0.727000D+00  0.100000D+01
  
  9  0
   s     4 1.00
  0.130100D+02  0.196850D-01
  0.196200D+01  0.137977D+00
  0.444600D+00  0.478148D+00
  0.122000D+00  0.501240D+00
   s     1 1.00
  0.122000D+00  0.100000D+01
   p     1 1.00
  0.727000D+00  0.100000D+01
  
 10  0
   s     4 1.00
  0.130100D+02  0.196850D-01
  0.196200D+01  0.137977D+00
  0.444600D+00  0.478148D+00
  0.122000D+00  0.501240D+00
   s     1 1.00
  0.122000D+00  0.100000D+01
   p     1 1.00
  0.727000D+00  0.100000D+01
  
 11  0
   s     4 1.00
  0.130100D+02  0.196850D-01
  0.196200D+01  0.137977D+00
  0.444600D+00  0.478148D+00
  0.122000D+00  0.501240D+00
   s     1 1.00
  0.122000D+00  0.100000D+01
   p     1 1.00
  0.727000D+00  0.100000D+01
  
 12  0
   s     4 1.00
  0.130100D+02  0.196850D-01
  0.196200D+01  0.137977D+00
  0.444600D+00  0.478148D+00
  0.122000D+00  0.501240D+00
   s     1 1.00
  0.122000D+00  0.100000D+01
   p     1 1.00
  0.727000D+00  0.100000D+01
  
 13  0
   s     4 1.00
  0.130100D+02  0.196850D-01
  0.196200D+01  0.137977D+00
  0.444600D+00  0.478148D+00
  0.122000D+00  0.501240D+00
   s     1 1.00
  0.122000D+00  0.100000D+01
   p     1 1.00
  0.727000D+00  0.100000D+01
  
 14  0
   s     4 1.00
  0.130100D+02  0.196850D-01
  0.196200D+01  0.137977D+00
  0.444600D+00  0.478148D+00
  0.122000D+00  0.501240D+00
   s     1 1.00
  0.122000D+00  0.100000D+01
   p     1 1.00
  0.727000D+00  0.100000D+01
  
[MO]
 Sym= __1_a__
 Ene=  0.000000000000000E+000
 Spin= Alpha
 Occup=    2.00000000000000     
                     1  4.327917598419790E-005
                     2  0.998734093912704     
                     3  9.553770638800609E-004
                     4  1.244327240416450E-003
                     5  5.115269866330630E-003
                     6  3.390752103327720E-003
                     7  6.362767187925540E-003
                     8  0.000000000000000E+000
                     9 -8.116036053245460E-004
                    10 -5.651023930824881E-004
                    11  0.000000000000000E+000
                    12 -2.295096080269340E-003
                    13 -2.159998377447130E-003
                    14  0.000000000000000E+000
                    15 -3.687170120312800E-005
                    16  0.000000000000000E+000
                    17  0.000000000000000E+000
                    18 -2.530291545905540E-004
                    19 -1.186643446012030E-005
                    20  1.217963236471541E-004
                    21  0.000000000000000E+000
                    22  0.000000000000000E+000
                    23 -1.831660820966676E-004
                    24  3.892842564718180E-004
                    25  0.000000000000000E+000
                    26 -7.001183137829378E-006
                    27 -4.222901432658874E-005
                    28  0.000000000000000E+000
                    29  0.000000000000000E+000
                    30  2.720554963166464E-005
                    31 -1.190564410774206E-004
                    32 -2.925560609777820E-004
                    33  1.058219517419770E-003
                    34  2.688673600097940E-004
                    35 -2.895672862636850E-004
                    36 -1.666564847929330E-004
                    37 -3.975791343574970E-003
                    38  0.000000000000000E+000
                    39  5.792978053172050E-004
                    40  1.555351665467570E-005
                    41  0.000000000000000E+000
                    42 -2.546146234286550E-003
                    43  5.485178085784800E-003
                    44  0.000000000000000E+000
                    45 -2.358789258009010E-005
                    46  0.000000000000000E+000
                    47  0.000000000000000E+000
                    48 -2.092527145246680E-004
                    49 -1.638163679245860E-006
                    50 -2.410411569464175E-004
                    51  0.000000000000000E+000
                    52  0.000000000000000E+000
                    53 -1.366546627359892E-004
                    54  6.998411868649939E-004
                    55  0.000000000000000E+000
                    56 -1.518224878433345E-005
                    57 -4.305249407154824E-005
                    58  0.000000000000000E+000
                    59  0.000000000000000E+000
                    60 -4.242650577761517E-006
                    61 -1.071854472558688E-004
                    62 -5.569023993843660E-004
                    63 -2.355410395478220E-003
                    64 -1.004526932779680E-004
                    65  2.296360332406300E-003
                    66 -5.920333565374860E-004
                    67  3.832352069271390E-004
                    68  0.000000000000000E+000
                    69  4.640327333969600E-004
                    70  7.421139851737990E-004
                    71  0.000000000000000E+000
                    72 -1.896177678824210E-003
                    73  8.148324807108641E-004
                    74  0.000000000000000E+000
                    75 -4.497254219423191E-005
                    76  0.000000000000000E+000
                    77  0.000000000000000E+000
                    78 -7.541116771752161E-005
                    79 -2.963623676877630E-005
                    80 -1.655917475138693E-004
                    81  0.000000000000000E+000
                    82  0.000000000000000E+000
                    83  4.079369871600100E-005
                    84  1.037998772921720E-005
                    85  0.000000000000000E+000
                    86  3.421181837648286E-006
                    87 -4.312060865556941E-005
                    88  0.000000000000000E+000
                    89  0.000000000000000E+000
                    90 -8.512804744065754E-006
                    91 -1.581508041538346E-004
                    92 -1.225971085429130E-004
                    93 -8.281359652070120E-004
                    94  2.010097571408680E-004
                    95 -2.584937573228520E-004
                    96  4.416973118636050E-004
                    97  5.044778513121770E-004
                    98  0.000000000000000E+000
                    99  3.791021374727710E-004
                   100  1.842301161834120E-004
                   101  0.000000000000000E+000
                   102  5.623862580386180E-004
                   103 -1.566217844820050E-003
                   104  0.000000000000000E+000
                   105 -1.020243873296041E-005
                   106  0.000000000000000E+000
                   107  0.000000000000000E+000
                   108 -4.970410382872520E-005
                   109 -1.672044690353910E-005
                   110  1.614795028601234E-004
                   111  0.000000000000000E+000
                   112  0.000000000000000E+000
                   113 -1.315841090511290E-004
                   114  1.116737472867890E-005
                   115  0.000000000000000E+000
                   116 -2.661301564881355E-005
                   117 -3.246491428277755E-005
                   118  0.000000000000000E+000
                   119  0.000000000000000E+000
                   120  1.553998265704400E-005
                   121 -2.334683187067406E-005
                   122 -3.005575345611520E-004
                   123 -7.007537410221110E-004
                   124  1.725818037571980E-004
                   125  4.852401255695970E-004
                   126 -2.635944649628700E-005
                   127 -4.672643885771790E-004
                   128  0.000000000000000E+000
                   129  2.521079475615080E-004
                   130  6.151574232759720E-004
                   131  0.000000000000000E+000
                   132  3.911818632035090E-004
                   133  2.169262031876890E-003
                   134  0.000000000000000E+000
                   135  8.017541029596379E-006
                   136  0.000000000000000E+000
                   137  0.000000000000000E+000
                   138  4.507477700882780E-005
                   139 -1.117285218644410E-006
                   140  2.188420668770571E-004
                   141  0.000000000000000E+000
                   142  0.000000000000000E+000
                   143  3.687682038116780E-004
                   144  2.439436007461670E-004
                   145  0.000000000000000E+000
                   146 -9.504167001741806E-006
                   147 -6.199382995988484E-005
                   148  0.000000000000000E+000
                   149  0.000000000000000E+000
                   150 -2.075240713385097E-005
                   151 -4.843591789554574E-005
                   152 -1.987969916488620E-004
                   153 -4.065049309634240E-004
                   154  2.693607642395710E-005
                   155  4.858956392805940E-004
                   156 -2.496923593083390E-005
                   157 -3.664701980728440E-004
                   158  0.000000000000000E+000
                   159  1.551600942179190E-005
                   160 -5.218253958387310E-006
                   161  0.000000000000000E+000
                   162  7.387998297787600E-004
                   163 -3.905584374293820E-004
                   164  0.000000000000000E+000
                   165 -4.742338051466172E-006
                   166  0.000000000000000E+000
                   167  0.000000000000000E+000
                   168 -8.150332105558919E-006
                   169  7.808735485832960E-006
                   170  4.993722063765595E-005
                   171  0.000000000000000E+000
                   172  0.000000000000000E+000
                   173 -1.509187678068006E-005
                   174 -6.643079802898440E-006
                   175  0.000000000000000E+000
                   176  5.142523379036951E-006
                   177 -5.489317610516975E-006
                   178  0.000000000000000E+000
                   179  0.000000000000000E+000
                   180 -2.665278151224776E-005
                   181 -5.666917477134580E-006
                   182 -1.830248204588950E-004
                   183 -5.333076310647080E-004
                   184  5.696825046969700E-005
                   185  2.769874741855020E-004
                   186 -4.213652473101150E-005
                   187 -4.995452122225330E-005
                   188  0.000000000000000E+000
                   189  2.226669659796890E-004
                   190  6.866409600677140E-005
                   191  0.000000000000000E+000
                   192  1.432156151379660E-003
                   193 -1.877545317562690E-004
                   194  0.000000000000000E+000
                   195 -1.540662796946646E-006
                   196  0.000000000000000E+000
                   197  0.000000000000000E+000
                   198 -1.277665227805908E-005
                   199  7.446339324122200E-006
                   200  2.874622340320827E-005
                   201  0.000000000000000E+000
                   202  0.000000000000000E+000
                   203 -8.603855046353820E-005
                   204 -2.040057853651620E-004
                   205  0.000000000000000E+000
                   206 -6.810006590870877E-006
                   207 -6.780561955409536E-006
                   208  0.000000000000000E+000
                   209  0.000000000000000E+000
                   210  1.226051064299923E-005
                   211 -1.729828131207498E-007
                   212 -1.042139394267520E-005
                   213  1.170431654290870E-004
                   214  1.101155963413190E-004
                   215  1.076177533253190E-004
                   216  0.000000000000000E+000
                   217 -5.706804704314760E-004
                   218 -3.363758822405220E-004
                   219 -2.077217710367180E-004
                   220  9.234670408793600E-005
                   221  0.000000000000000E+000
                   222 -3.663912818564590E-004
                   223 -7.036284731006500E-004
                   224  5.121768578454370E-006
                   225 -6.977148651266370E-005
                   226  0.000000000000000E+000
                   227 -1.417550687263410E-004
                   228 -5.854693414432090E-004
                   229 -8.315518759353690E-006
                   230 -1.487565251302570E-005
                   231  0.000000000000000E+000
                   232 -2.644399421421150E-005
                   233 -5.972179067067610E-004
                   234  8.428823682943080E-006
                   235 -7.681976535622370E-006
                   236  0.000000000000000E+000
                   237 -1.295672372649300E-004
                   238 -3.662237086267950E-004
                   239  8.450380218310550E-006
                   240  3.219787757377000E-006
                   241  0.000000000000000E+000
                   242  1.074525062507240E-005
                   243 -2.344022479798650E-005
                   244  5.431459566934460E-007
                   245  2.192522393903310E-005
                   246  0.000000000000000E+000
 Sym= __2_a__
 Ene=  0.000000000000000E+000
 Spin= Alpha
 Occup=    2.00000000000000     
                     1 -5.646109776231050E-005
                     2 -3.535621252686940E-004
                     3  3.106511083192790E-003
                     4  1.710258099159010E-004
                     5  1.335082323123180E-003
                     6 -1.161355288211480E-004
                     7  2.831305817352890E-003
                     8  0.000000000000000E+000
                     9 -2.563169160337970E-005
                    10 -1.353175832236780E-004
                    11  0.000000000000000E+000
                    12  1.612070553107320E-005
                    13 -3.472530167855700E-004
                    14  0.000000000000000E+000
                    15  3.095317641220785E-005
                    16  0.000000000000000E+000
                    17  0.000000000000000E+000
                    18 -4.453822632928720E-005
                    19  1.228980835856920E-005
                    20 -1.065404754186602E-004
                    21  0.000000000000000E+000
                    22  0.000000000000000E+000
                    23  8.839885368609939E-005
                    24 -5.746704859543680E-006
                    25  0.000000000000000E+000
                    26 -6.681868435749349E-006
                    27  8.591941451259688E-005
                    28  0.000000000000000E+000
                    29  0.000000000000000E+000
                    30 -3.733161708391589E-006
                    31  1.559261899609240E-004
                    32   1.00101767528069     
                    33  9.249534373440860E-003
                    34  2.743851181207730E-003
                    35 -8.156540596239530E-003
                    36 -1.076574117136740E-004
                    37 -3.609117374044250E-003
                    38  0.000000000000000E+000
                    39  1.595823058580140E-004
                    40  5.502425404599050E-004
                    41  0.000000000000000E+000
                    42  2.051269736152680E-005
                    43  4.223340039805550E-003
                    44  0.000000000000000E+000
                    45 -5.695338065467528E-004
                    46  0.000000000000000E+000
                    47  0.000000000000000E+000
                    48 -2.002234989830380E-004
                    49  3.043644858310870E-006
                    50  5.521540307377969E-004
                    51  0.000000000000000E+000
                    52  0.000000000000000E+000
                    53 -8.325914192956240E-004
                    54  4.146447605543600E-005
                    55  0.000000000000000E+000
                    56 -6.927470390574417E-006
                    57  9.236455620906600E-005
                    58  0.000000000000000E+000
                    59  0.000000000000000E+000
                    60  7.092461996205583E-006
                    61  3.932422870699790E-004
                    62  9.270062786892450E-003
                    63 -2.087009272957100E-003
                    64 -2.978492699906160E-004
                    65  3.058667110964510E-003
                    66 -3.016060464061320E-005
                    67  1.240889505459640E-004
                    68  0.000000000000000E+000
                    69  7.284533012848470E-004
                    70  1.793425881214720E-005
                    71  0.000000000000000E+000
                    72 -2.042781047211710E-003
                    73  7.534254725730430E-005
                    74  0.000000000000000E+000
                    75  2.732030422629279E-005
                    76  0.000000000000000E+000
                    77  0.000000000000000E+000
                    78 -2.237182171095440E-006
                    79  2.972948686098900E-006
                    80 -4.173953167639956E-004
                    81  0.000000000000000E+000
                    82  0.000000000000000E+000
                    83 -5.845454134165780E-004
                    84 -3.686504648879260E-004
                    85  0.000000000000000E+000
                    86  3.156505381925460E-005
                    87 -5.901101357788562E-005
                    88  0.000000000000000E+000
                    89  0.000000000000000E+000
                    90  4.944906145465156E-005
                    91  1.390551002540799E-004
                    92  9.593415102928290E-003
                    93 -2.045435973322880E-003
                    94 -2.753413596055050E-004
                    95  2.978827032327740E-003
                    96 -2.819861388446840E-006
                    97  8.071350378658189E-005
                    98  0.000000000000000E+000
                    99 -6.484693492735580E-004
                   100  7.768173727184820E-005
                   101  0.000000000000000E+000
                   102  2.033069589552210E-003
                   103  6.760424699689520E-005
                   104  0.000000000000000E+000
                   105  3.164774692499885E-005
                   106  0.000000000000000E+000
                   107  0.000000000000000E+000
                   108 -5.693446429702900E-006
                   109 -7.406089722736200E-006
                   110 -4.090607070277289E-004
                   111  0.000000000000000E+000
                   112  0.000000000000000E+000
                   113 -6.064890813095320E-004
                   114  3.442965169504960E-004
                   115  0.000000000000000E+000
                   116 -3.310165178891830E-005
                   117 -6.038336447734133E-005
                   118  0.000000000000000E+000
                   119  0.000000000000000E+000
                   120 -4.879845787090286E-005
                   121  1.377379861443663E-004
                   122 -1.500855346444070E-004
                   123 -6.682142594464630E-004
                   124  2.289806806476180E-004
                   125 -1.244296521280850E-004
                   126  2.467309600619040E-007
                   127 -3.484755599781630E-004
                   128  0.000000000000000E+000
                   129 -6.425676216800451E-005
                   130  5.468903884857640E-004
                   131  0.000000000000000E+000
                   132  3.254565608787220E-004
                   133  7.530222732337940E-004
                   134  0.000000000000000E+000
                   135  1.964349560731225E-005
                   136  0.000000000000000E+000
                   137  0.000000000000000E+000
                   138  3.958691681213420E-006
                   139  5.317355384558010E-005
                   140  1.372598201530371E-004
                   141  0.000000000000000E+000
                   142  0.000000000000000E+000
                   143  2.455590214344480E-004
                   144 -1.854114239989680E-004
                   145  0.000000000000000E+000
                   146  7.069554412163236E-006
                   147 -3.361212589067552E-005
                   148  0.000000000000000E+000
                   149  0.000000000000000E+000
                   150 -4.705270305199840E-005
                   151  2.770928074914981E-005
                   152 -1.478154398334030E-004
                   153 -6.787415085825880E-004
                   154  2.309183437763130E-004
                   155 -1.408171747836730E-004
                   156  1.985633327144130E-006
                   157 -3.370520974167180E-004
                   158  0.000000000000000E+000
                   159  5.507089827610730E-005
                   160  5.654979005225860E-004