[Molden Format]
[Atoms] AU
  N     1    7     0.0000000000    0.0000000000   -4.3668474600        
  C     2    6     0.0000000000    0.0000000000   -1.7740464400        
  C     3    6     0.0000000000   -2.3573011600   -0.4721992900        
  C     4    6     0.0000000000    2.3573011600   -0.4721992900        
  C     5    6     0.0000000000   -2.3296821800    2.2151673000        
  C     6    6     0.0000000000    2.3296821800    2.2151673000        
  C     7    6     0.0000000000    0.0000000000    3.5024729200        
  H     8    1     0.0000000000   -1.6426100600   -5.3349761600        
  H     9    1     0.0000000000    1.6426100600   -5.3349761600        
  H    10    1     0.0000000000   -4.0927870300   -1.5120461700        
  H    11    1     0.0000000000    4.0927870300   -1.5120461700        
  H    12    1     0.0000000000   -4.0641945300    3.2578227800        
  H    13    1     0.0000000000    4.0641945300    3.2578227800        
  H    14    1     0.0000000000    0.0000000000    5.5323986300        
[5D]
[7F]
[GTO]
  1  0
   s    12 1.00
  0.114200D+05  0.172695D-04
  0.171200D+04  0.134411D-03
  0.389300D+03  0.694561D-03
  0.110000D+03  0.278531D-02
  0.355700D+02  0.863457D-02
  0.125400D+02  0.199805D-01
  0.464400D+01  0.262908D-01
  0.129300D+01 -0.243845D-01
  0.511800D+00 -0.924934D-01
  0.178700D+00 -0.339683D+00
  0.246240D-01  0.345111D+00
  0.112530D-01  0.752750D+00
   s    10 1.00
  0.114200D+05  0.523000D-03
  0.171200D+04  0.404500D-02
  0.389300D+03  0.207750D-01
  0.110000D+03  0.807269D-01
  0.355700D+02  0.233074D+00
  0.125400D+02  0.433501D+00
  0.464400D+01  0.347472D+00
  0.129300D+01  0.412620D-01
  0.511800D+00 -0.850799D-02
  0.178700D+00  0.238400D-02
   s    10 1.00
  0.114200D+05 -0.115000D-03
  0.171200D+04 -0.895000D-03
  0.389300D+03 -0.462400D-02
  0.110000D+03 -0.185280D-01
  0.355700D+02 -0.573390D-01
  0.125400D+02 -0.132076D+00
  0.464400D+01 -0.172510D+00
  0.129300D+01  0.151814D+00
  0.511800D+00  0.599944D+00
  0.178700D+00  0.387462D+00
   s     1 1.00
  0.129300D+01  0.100000D+01
   s     1 1.00
  0.178700D+00  0.100000D+01
   p     5 1.00
  0.266300D+02  0.146700D-01
  0.594800D+01  0.917640D-01
  0.174200D+01  0.298683D+00
  0.555000D+00  0.498487D+00
  0.172500D+00  0.337023D+00
   p     1 1.00
  0.174200D+01  0.100000D+01
   p     1 1.00
  0.555000D+00  0.100000D+01
   d     1 1.00
  0.165400D+01  0.100000D+01
   d     1 1.00
  0.469000D+00  0.100000D+01
   f     1 1.00
  0.109300D+01  0.100000D+01
  
  2  0
   s    10 1.00
  0.823600D+04  0.531000D-03
  0.123500D+04  0.410800D-02
  0.280800D+03  0.210870D-01
  0.792700D+02  0.818530D-01
  0.255900D+02  0.234817D+00
  0.899700D+01  0.434401D+00
  0.331900D+01  0.346129D+00
  0.905900D+00  0.393780D-01
  0.364300D+00 -0.898300D-02
  0.128500D+00  0.238500D-02
   s    10 1.00
  0.823600D+04 -0.113000D-03
  0.123500D+04 -0.878000D-03
  0.280800D+03 -0.454000D-02
  0.792700D+02 -0.181330D-01
  0.255900D+02 -0.557600D-01
  0.899700D+01 -0.126895D+00
  0.331900D+01 -0.170352D+00
  0.905900D+00  0.140382D+00
  0.364300D+00  0.598684D+00
  0.128500D+00  0.395389D+00
   s     1 1.00
  0.905900D+00  0.100000D+01
   s     1 1.00
  0.364300D+00  0.100000D+01
   p     5 1.00
  0.187100D+02  0.140310D-01
  0.413300D+01  0.868660D-01
  0.120000D+01  0.290216D+00
  0.382700D+00  0.501008D+00
  0.120900D+00  0.343406D+00
   p     1 1.00
  0.382700D+00  0.100000D+01
   p     1 1.00
  0.120900D+00  0.100000D+01
   d     1 1.00
  0.109700D+01  0.100000D+01
   d     1 1.00
  0.318000D+00  0.100000D+01
   f     1 1.00
  0.761000D+00  0.100000D+01
  
  3  0
   s    10 1.00
  0.823600D+04  0.531000D-03
  0.123500D+04  0.410800D-02
  0.280800D+03  0.210870D-01
  0.792700D+02  0.818530D-01
  0.255900D+02  0.234817D+00
  0.899700D+01  0.434401D+00
  0.331900D+01  0.346129D+00
  0.905900D+00  0.393780D-01
  0.364300D+00 -0.898300D-02
  0.128500D+00  0.238500D-02
   s    10 1.00
  0.823600D+04 -0.113000D-03
  0.123500D+04 -0.878000D-03
  0.280800D+03 -0.454000D-02
  0.792700D+02 -0.181330D-01
  0.255900D+02 -0.557600D-01
  0.899700D+01 -0.126895D+00
  0.331900D+01 -0.170352D+00
  0.905900D+00  0.140382D+00
  0.364300D+00  0.598684D+00
  0.128500D+00  0.395389D+00
   s     1 1.00
  0.905900D+00  0.100000D+01
   s     1 1.00
  0.364300D+00  0.100000D+01
   p     5 1.00
  0.187100D+02  0.140310D-01
  0.413300D+01  0.868660D-01
  0.120000D+01  0.290216D+00
  0.382700D+00  0.501008D+00
  0.120900D+00  0.343406D+00
   p     1 1.00
  0.382700D+00  0.100000D+01
   p     1 1.00
  0.120900D+00  0.100000D+01
   d     1 1.00
  0.109700D+01  0.100000D+01
   d     1 1.00
  0.318000D+00  0.100000D+01
   f     1 1.00
  0.761000D+00  0.100000D+01
  
  4  0
   s    10 1.00
  0.823600D+04  0.531000D-03
  0.123500D+04  0.410800D-02
  0.280800D+03  0.210870D-01
  0.792700D+02  0.818530D-01
  0.255900D+02  0.234817D+00
  0.899700D+01  0.434401D+00
  0.331900D+01  0.346129D+00
  0.905900D+00  0.393780D-01
  0.364300D+00 -0.898300D-02
  0.128500D+00  0.238500D-02
   s    10 1.00
  0.823600D+04 -0.113000D-03
  0.123500D+04 -0.878000D-03
  0.280800D+03 -0.454000D-02
  0.792700D+02 -0.181330D-01
  0.255900D+02 -0.557600D-01
  0.899700D+01 -0.126895D+00
  0.331900D+01 -0.170352D+00
  0.905900D+00  0.140382D+00
  0.364300D+00  0.598684D+00
  0.128500D+00  0.395389D+00
   s     1 1.00
  0.905900D+00  0.100000D+01
   s     1 1.00
  0.364300D+00  0.100000D+01
   p     5 1.00
  0.187100D+02  0.140310D-01
  0.413300D+01  0.868660D-01
  0.120000D+01  0.290216D+00
  0.382700D+00  0.501008D+00
  0.120900D+00  0.343406D+00
   p     1 1.00
  0.382700D+00  0.100000D+01
   p     1 1.00
  0.120900D+00  0.100000D+01
   d     1 1.00
  0.109700D+01  0.100000D+01
   d     1 1.00
  0.318000D+00  0.100000D+01
   f     1 1.00
  0.761000D+00  0.100000D+01
  
  5  0
   s    10 1.00
  0.823600D+04  0.531000D-03
  0.123500D+04  0.410800D-02
  0.280800D+03  0.210870D-01
  0.792700D+02  0.818530D-01
  0.255900D+02  0.234817D+00
  0.899700D+01  0.434401D+00
  0.331900D+01  0.346129D+00
  0.905900D+00  0.393780D-01
  0.364300D+00 -0.898300D-02
  0.128500D+00  0.238500D-02
   s    10 1.00
  0.823600D+04 -0.113000D-03
  0.123500D+04 -0.878000D-03
  0.280800D+03 -0.454000D-02
  0.792700D+02 -0.181330D-01
  0.255900D+02 -0.557600D-01
  0.899700D+01 -0.126895D+00
  0.331900D+01 -0.170352D+00
  0.905900D+00  0.140382D+00
  0.364300D+00  0.598684D+00
  0.128500D+00  0.395389D+00
   s     1 1.00
  0.905900D+00  0.100000D+01
   s     1 1.00
  0.364300D+00  0.100000D+01
   p     5 1.00
  0.187100D+02  0.140310D-01
  0.413300D+01  0.868660D-01
  0.120000D+01  0.290216D+00
  0.382700D+00  0.501008D+00
  0.120900D+00  0.343406D+00
   p     1 1.00
  0.382700D+00  0.100000D+01
   p     1 1.00
  0.120900D+00  0.100000D+01
   d     1 1.00
  0.109700D+01  0.100000D+01
   d     1 1.00
  0.318000D+00  0.100000D+01
   f     1 1.00
  0.761000D+00  0.100000D+01
  
  6  0
   s    10 1.00
  0.823600D+04  0.531000D-03
  0.123500D+04  0.410800D-02
  0.280800D+03  0.210870D-01
  0.792700D+02  0.818530D-01
  0.255900D+02  0.234817D+00
  0.899700D+01  0.434401D+00
  0.331900D+01  0.346129D+00
  0.905900D+00  0.393780D-01
  0.364300D+00 -0.898300D-02
  0.128500D+00  0.238500D-02
   s    10 1.00
  0.823600D+04 -0.113000D-03
  0.123500D+04 -0.878000D-03
  0.280800D+03 -0.454000D-02
  0.792700D+02 -0.181330D-01
  0.255900D+02 -0.557600D-01
  0.899700D+01 -0.126895D+00
  0.331900D+01 -0.170352D+00
  0.905900D+00  0.140382D+00
  0.364300D+00  0.598684D+00
  0.128500D+00  0.395389D+00
   s     1 1.00
  0.905900D+00  0.100000D+01
   s     1 1.00
  0.364300D+00  0.100000D+01
   p     5 1.00
  0.187100D+02  0.140310D-01
  0.413300D+01  0.868660D-01
  0.120000D+01  0.290216D+00
  0.382700D+00  0.501008D+00
  0.120900D+00  0.343406D+00
   p     1 1.00
  0.382700D+00  0.100000D+01
   p     1 1.00
  0.120900D+00  0.100000D+01
   d     1 1.00
  0.109700D+01  0.100000D+01
   d     1 1.00
  0.318000D+00  0.100000D+01
   f     1 1.00
  0.761000D+00  0.100000D+01
  
  7  0
   s    10 1.00
  0.823600D+04  0.531000D-03
  0.123500D+04  0.410800D-02
  0.280800D+03  0.210870D-01
  0.792700D+02  0.818530D-01
  0.255900D+02  0.234817D+00
  0.899700D+01  0.434401D+00
  0.331900D+01  0.346129D+00
  0.905900D+00  0.393780D-01
  0.364300D+00 -0.898300D-02
  0.128500D+00  0.238500D-02
   s    10 1.00
  0.823600D+04 -0.113000D-03
  0.123500D+04 -0.878000D-03
  0.280800D+03 -0.454000D-02
  0.792700D+02 -0.181330D-01
  0.255900D+02 -0.557600D-01
  0.899700D+01 -0.126895D+00
  0.331900D+01 -0.170352D+00
  0.905900D+00  0.140382D+00
  0.364300D+00  0.598684D+00
  0.128500D+00  0.395389D+00
   s     1 1.00
  0.905900D+00  0.100000D+01
   s     1 1.00
  0.364300D+00  0.100000D+01
   p     5 1.00
  0.187100D+02  0.140310D-01
  0.413300D+01  0.868660D-01
  0.120000D+01  0.290216D+00
  0.382700D+00  0.501008D+00
  0.120900D+00  0.343406D+00
   p     1 1.00
  0.382700D+00  0.100000D+01
   p     1 1.00
  0.120900D+00  0.100000D+01
   d     1 1.00
  0.109700D+01  0.100000D+01
   d     1 1.00
  0.318000D+00  0.100000D+01
   f     1 1.00
  0.761000D+00  0.100000D+01
  
  8  0
   s     4 1.00
  0.130100D+02  0.196850D-01
  0.196200D+01  0.137977D+00
  0.444600D+00  0.478148D+00
  0.122000D+00  0.501240D+00
   s     1 1.00
  0.122000D+00  0.100000D+01
   p     1 1.00
  0.727000D+00  0.100000D+01
  
  9  0
   s     4 1.00
  0.130100D+02  0.196850D-01
  0.196200D+01  0.137977D+00
  0.444600D+00  0.478148D+00
  0.122000D+00  0.501240D+00
   s     1 1.00
  0.122000D+00  0.100000D+01
   p     1 1.00
  0.727000D+00  0.100000D+01
  
 10  0
   s     4 1.00
  0.130100D+02  0.196850D-01
  0.196200D+01  0.137977D+00
  0.444600D+00  0.478148D+00
  0.122000D+00  0.501240D+00
   s     1 1.00
  0.122000D+00  0.100000D+01
   p     1 1.00
  0.727000D+00  0.100000D+01
  
 11  0
   s     4 1.00
  0.130100D+02  0.196850D-01
  0.196200D+01  0.137977D+00
  0.444600D+00  0.478148D+00
  0.122000D+00  0.501240D+00
   s     1 1.00
  0.122000D+00  0.100000D+01
   p     1 1.00
  0.727000D+00  0.100000D+01
  
 12  0
   s     4 1.00
  0.130100D+02  0.196850D-01
  0.196200D+01  0.137977D+00
  0.444600D+00  0.478148D+00
  0.122000D+00  0.501240D+00
   s     1 1.00
  0.122000D+00  0.100000D+01
   p     1 1.00
  0.727000D+00  0.100000D+01
  
 13  0
   s     4 1.00
  0.130100D+02  0.196850D-01
  0.196200D+01  0.137977D+00
  0.444600D+00  0.478148D+00
  0.122000D+00  0.501240D+00
   s     1 1.00
  0.122000D+00  0.100000D+01
   p     1 1.00
  0.727000D+00  0.100000D+01
  
 14  0
   s     4 1.00
  0.130100D+02  0.196850D-01
  0.196200D+01  0.137977D+00
  0.444600D+00  0.478148D+00
  0.122000D+00  0.501240D+00
   s     1 1.00
  0.122000D+00  0.100000D+01
   p     1 1.00
  0.727000D+00  0.100000D+01
  
[MO]
 Sym= __1_A__
 Ene=   1.00000000000000     
 Spin= Alpha
 Occup=    1.00000000000000     
                     1  4.199293140625895E-005
                     2  0.998056413998370     
                     3  7.482250307278087E-003
                     4  2.107647317667645E-003
                     5  1.797893050359229E-003
                     6 -1.279012412005471E-012
                     7  2.615645426173448E-009
                     8  3.869847814477572E-003
                     9  1.750291092809202E-012
                    10  7.945023956009938E-009
                    11 -1.776710953853829E-004
                    12  4.601419665158648E-012
                    13 -4.346624714943306E-008
                    14 -2.942643534545858E-004
                    15  1.755031177699970E-004
                    16 -9.362988372343503E-013
                    17 -1.948400768088437E-010
                    18 -1.279346481743925E-004
                    19 -1.246053615971507E-013
                    20  5.543293373435023E-005
                    21  3.209583065159779E-012
                    22  2.091201779241913E-009
                    23  5.323826573546679E-004
                    24 -4.604374635055817E-013
                    25 -1.536065718714731E-004
                    26 -1.428486355076284E-013
                    27 -6.957325430515577E-010
                    28  1.007734848553231E-004
                    29  3.694038349330969E-012
                    30 -1.974643347122372E-012
                    31  7.998333125788011E-010
                    32 -2.698940745665437E-004
                    33  2.102643292801625E-003
                    34  1.967033267612597E-005
                    35  1.181493598852045E-005
                    36  1.821876024763631E-012
                    37  1.800091594380478E-008
                    38 -5.826405299368004E-003
                    39 -5.583589306100582E-013
                    40 -6.861890526706315E-008
                    41 -1.212459025476768E-004
                    42  1.053150167806195E-011
                    43 -5.521390265136470E-008
                    44  3.836314983917683E-003
                    45  3.435007794679731E-004
                    46 -3.126682618613196E-012
                    47  4.978184567059311E-009
                    48  1.251445578230487E-004
                    49 -1.007132635212043E-012
                    50  1.956963637300307E-004
                    51  9.215177769945780E-012
                    52 -9.707597050992049E-008
                    53 -3.727959187545290E-004
                    54 -8.906891890633545E-012
                    55 -7.134979728498777E-005
                    56  5.116738042888161E-014
                    57 -1.726081845495092E-009
                    58  8.193512389952877E-005
                    59 -6.685798462472109E-012
                    60 -1.402662018445121E-012
                    61  7.757710151480705E-010
                    62 -1.926970952359284E-004
                    63 -1.509368395989627E-003
                    64  4.899207437748589E-005
                    65  4.912255338805737E-004
                    66  6.632688297921558E-012
                    67 -7.388671166405399E-004
                    68  8.411838483982100E-004
                    69 -1.501155767564255E-011
                    70 -2.022527584920427E-005
                    71  5.042267576827303E-004
                    72 -1.039607195988437E-011
                    73 -4.241614238808701E-004
                    74 -2.013068410985376E-004
                    75  7.305519457209417E-005
                    76  4.151240094019358E-013
                    77 -8.527733491368144E-006
                    78  3.374247207892916E-005
                    79  1.887835380655933E-012
                    80 -2.660206760526659E-005
                    81 -5.449507084357593E-012
                    82  1.377559754020360E-004
                    83 -3.193073625537116E-005
                    84 -1.285297267077214E-011
                    85 -8.342409666343606E-005
                    86 -1.840991749521275E-012
                    87 -3.683278680302128E-005
                    88  1.826315054958467E-005
                    89  2.575112613371440E-012
                    90 -1.325764373064620E-012
                    91  5.634519739833489E-006
                    92 -1.926849839415439E-004
                    93 -1.509311680364528E-003
                    94  4.908381676623104E-005
                    95  4.909781443778079E-004
                    96 -7.126823312521491E-012
                    97  7.388864382511825E-004
                    98  8.412667015412635E-004
                    99  9.674737155284568E-012
                   100  2.011405928774233E-005
                   101  5.038378460182216E-004
                   102 -4.164631538426048E-012
                   103  4.238469802084314E-004
                   104 -2.013643341584999E-004
                   105  7.304030678835238E-005
                   106 -4.151888948750415E-013
                   107  8.537344031445936E-006
                   108  3.374340512765378E-005
                   109 -5.427666248150151E-013
                   110 -2.688103952850699E-005
                   111 -5.693526367369825E-012
                   112 -1.377947894977470E-004
                   113 -3.200032418392978E-005
                   114 -1.706703131456733E-012
                   115 -8.338181006310780E-005
                   116  7.105533504373469E-013
                   117  3.682783309088543E-005
                   118  1.826391524322256E-005
                   119  4.070136549858901E-012
                   120  5.587845459813823E-015
                   121 -5.632796332288589E-006
                   122 -1.113280929519292E-004
                   123  6.182511391645363E-005
                   124  8.114766273681108E-005
                   125  1.748617822493916E-004
                   126 -2.920978116600092E-012
                   127  2.468075408740917E-005
                   128 -7.247215879117965E-004
                   129  9.389874228405690E-012
                   130  4.899875757115533E-005
                   131  2.622851562796307E-004
                   132  5.663315783745048E-012
                   133 -2.210683045705114E-004
                   134  5.961920981413933E-004
                   135 -8.198404174900357E-006
                   136  1.869345470390554E-012
                   137 -6.671762693705202E-007
                   138 -1.241783912833283E-006
                   139 -4.972635406785988E-012
                   140 -1.626094921297944E-004
                   141 -1.171946934416563E-011
                   142  1.503845584857192E-004
                   143  2.194500937845488E-005
                   144  7.165410643051532E-012
                   145 -3.696963009676336E-005
                   146  1.576545912791405E-012
                   147  3.095213709858125E-006
                   148 -9.968408925519650E-006
                   149 -1.897504125736811E-012
                   150 -2.025672555922576E-012
                   151 -3.752807685814429E-006
                   152 -1.116387382138131E-004
                   153  6.072777941689995E-005
                   154  8.088232351134144E-005
                   155  1.765756527169299E-004
                   156 -4.685186299582052E-012
                   157 -2.470315654261753E-005
                   158 -7.246707566189135E-004
                   159  7.860286808814094E-012
                   160 -4.902185158809221E-005
                   161  2.620028738239759E-004
                   162  5.833650352437762E-012
                   163  2.214018270032717E-004
                   164  5.961185107726988E-004
                   165 -8.170891940593759E-006
                   166 -2.813766772984493E-012
                   167  6.716432397028886E-007
                   168 -1.264756196475267E-006
                   169 -4.480210919265282E-012
                   170 -1.624966504597942E-004
                   171  1.604429878198135E-012
                   172 -1.504485713524908E-004
                   173  2.194417252022478E-005
                   174  1.649083071052659E-012
                   175 -3.691771524943512E-005
                   176  9.716852909388368E-013
                   177 -3.081531233624911E-006
                   178 -9.993123588923665E-006
                   179  2.387238260469766E-012
                   180  3.582089977531579E-012
                   181  3.748968383078983E-006
                   182 -7.900738997718933E-005
                   183 -2.146593518317272E-004
                   184  2.893941430282781E-005
                   185  7.748495578153728E-005
                   186 -4.929919715169791E-012
                   187  1.332077871895957E-008
                   188 -1.688744042149551E-005
                   189  1.513416454928653E-012
                   190 -1.078396342437199E-007
                   191  1.631118073332450E-005
                   192 -2.704708789990018E-012
                   193  8.424559531745160E-008
                   194  2.993536170795400E-005
                   195  2.067758682181790E-005
                   196 -1.929637646883213E-012
                   197  6.790998957047227E-009
                   198  8.394756625124931E-006
                   199 -1.822346355593617E-012
                   200  3.869199949759219E-005
                   201  5.472160427496704E-012
                   202  6.424975827005593E-008
                   203  6.027143732239556E-005
                   204 -1.822973220902163E-013
                   205 -5.751876892356473E-006
                   206 -2.870695640944008E-012
                   207 -4.005779624581608E-009
                   208 -2.841019325446260E-006
                   209  3.287769842456623E-014
                   210 -8.381281772762868E-013
                   211  7.943728247140867E-009
                   212  3.664496332991158E-003
                   213 -2.294448291698073E-003
                   214 -4.430550958188301E-013
                   215  4.291671931984037E-004
                   216  3.335185027052714E-004
                   217  3.664548625392411E-003
                   218 -2.294468949861911E-003
                   219  3.156176757402217E-012
                   220 -4.291900017043648E-004
                   221  3.335284461286155E-004
                   222 -5.790321057546237E-004
                   223 -8.617072109112747E-005
                   224 -3.328737453028661E-012
                   225 -1.263661636879855E-005
                   226 -3.869690038643501E-005
                   227 -5.790773526407880E-004
                   228 -8.600495454602440E-005
                   229  1.759882310632736E-012
                   230  1.262305268855208E-005
                   231 -3.871624852349777E-005
                   232 -1.884762349269904E-004
                   233 -3.683550394924058E-004
                   234  3.622187115566637E-012
                   235 -1.155000562588836E-006
                   236  2.954594936243592E-006
                   237 -1.885788929071238E-004
                   238 -3.683571434627263E-004
                   239 -1.299881710155508E-012
                   240  1.200994061787153E-006
                   241  2.984215455845319E-006
                   242  1.015781779888920E-004
                   243 -9.855962681595316E-005
                   244 -5.681419813965345E-013
                   245 -7.311453752563615E-009
                   246  8.134712054338051E-006
 Sym= __2_A__
 Ene=   2.00000000000000     
 Spin= Alpha
 Occup=    1.00000000000000     
                     1 -4.503587599556741E-005
                     2 -1.587368798516091E-004
                     3  1.955876472931948E-003
                     4  4.759917666825909E-005
                     5  1.136823723055384E-003
                     6  4.444899766734787E-012
                     7  3.047263418932496E-009
                     8  2.626888285559419E-003
                     9 -5.080631599875784E-012
                    10 -2.485083998071260E-009
                    11 -4.171350192576810E-005
                    12  1.769271803513498E-012
                    13  4.142140993308606E-009
                    14 -3.773737514733628E-004
                    15  5.813534909798179E-005
                    16 -1.952829830911191E-014
                    17  1.476139332674116E-010
                    18  6.327415303519966E-005
                    19 -3.274037789132127E-013
                    20 -2.305793610181353E-004
                    21  6.519106932845464E-012
                    22  1.196200704255659E-009
                    23 -3.403193477514680E-004
                    24 -1.284274136763911E-012
                    25  1.801513772048455E-004
                    26 -1.731899945381995E-013
                    27 -5.520241594034548E-010
                    28 -1.078239082296614E-005
                    29 -2.120420213353108E-012
                    30 -8.774908762004562E-013
                    31  5.166099415377445E-010
                    32   1.00108417575502     
                    33  9.025704548893400E-003
                    34  2.588944184705833E-003
                    35 -7.921931986463654E-003
                    36  6.790174886312255E-012
                    37 -4.426211515731668E-009
                    38 -3.603995980637864E-003
                    39 -4.542831778347526E-012
                    40  1.050402181710591E-009
                    41  1.031741169186042E-003
                    42  6.176736412243038E-013
                    43 -3.863898879204786E-008
                    44  4.026589456618684E-003
                    45  3.245740675664880E-004
                    46 -2.651953904970931E-013
                    47 -2.363733739203662E-009
                    48 -4.515730647602332E-004
                    49  5.000760408409159E-013
                    50  7.994406432252203E-004
                    51  9.719100870472062E-012
                    52  1.089052977305619E-008
                    53  1.144330295298074E-003
                    54  1.159004738147535E-011
                    55  3.236872943404327E-004
                    56 -1.538579539566686E-012
                    57  3.098254060837181E-010
                    58 -1.969014318246023E-004
                    59  4.563724759340032E-012
                    60 -4.242035837890461E-013
                    61  1.620045968348464E-009
                    62  8.947517264625107E-003
                    63 -1.989402851595168E-003
                    64 -2.902788500747254E-004
                    65  3.122721820084754E-003
                    66  8.276181825385443E-012
                    67  1.612669789498167E-004
                    68 -1.894636650930470E-005
                    69  3.427876707203897E-012
                    70  6.178479410489025E-004
                    71 -1.845045932760464E-004
                    72 -1.135340395872141E-011
                    73 -2.072537713818453E-003
                    74  1.098125841281986E-005
                    75 -2.418330278442892E-005
                    76 -2.033918690797753E-012
                    77  1.553059445322926E-005
                    78  1.886414621649298E-005
                    79  3.243560643847845E-012
                    80  8.240388137724982E-004
                    81  2.817031627410570E-012
                    82 -5.900771556584839E-004
                    83  3.159668203440652E-005
                    84  4.172887587638826E-012
                    85  5.706016670230349E-005
                    86  2.198629681866026E-012
                    87  6.444773241842498E-005
                    88 -1.063015486473136E-004
                    89 -5.389527618719623E-012
                    90  1.610415886764061E-012
                    91  6.465189564886318E-005
                    92  8.947494970106523E-003
                    93 -1.989472843304563E-003
                    94 -2.903104036200512E-004
                    95  3.122859978094895E-003
                    96  1.080993006641159E-011
                    97 -1.612658961595001E-004
                    98 -1.896708835579102E-005
                    99 -1.315150622368918E-011
                   100 -6.178499902798682E-004
                   101 -1.844154421181384E-004
                   102 -8.967378727304437E-012
                   103  2.072647834173512E-003
                   104  1.088118931546350E-005
                   105 -2.417394614887591E-005
                   106  4.001008188012147E-012
                   107 -1.553532207999092E-005
                   108  1.886304893074821E-005
                   109 -1.736663458689020E-012
                   110  8.240874251024480E-004
                   111  3.623995795076949E-012
                   112  5.901119930008570E-004
                   113  3.161133474577298E-005
                   114  7.649486391246645E-012
                   115  5.704860637002219E-005
                   116 -1.605499639296985E-014
                   117 -6.444747183819201E-005
                   118 -1.062996453961745E-004
                   119 -3.941915803095942E-012
                   120 -3.579052329354233E-012
                   121 -6.465109290319542E-005
                   122 -2.185635999945116E-004
                   123 -7.064745607002567E-004
                   124  2.219220295666668E-004
                   125 -9.377433179858760E-005
                   126  3.947490862314640E-012
                   127 -2.835028026105044E-005
                   128 -2.304368804622915E-004
                   129 -5.269275568000011E-012
                   130  2.622758496556765E-005
                   131  4.719675904383280E-004
                   132  1.285750226001778E-011
                   133  3.449661710814562E-004
                   134  6.707414252842093E-004
                   135 -1.335467394860488E-005
                   136 -1.420019468502190E-012
                   137  4.776018160847333E-005
                   138  1.204574999508077E-005
                   139  3.764937229898509E-013
                   140 -3.007614698700643E-004
                   141  2.964012045213331E-012
                   142 -2.854144900710274E-004
                   143 -1.599866396523910E-005
                   144  4.715389932019467E-012
                   145 -8.782872359620979E-006
                   146 -1.369522371640026E-012
                   147 -3.601121107321094E-005
                   148 -2.881370553199752E-005
                   149 -2.119104665707901E-012
                   150 -6.240778472477987E-013
                   151 -4.415525499266886E-006
                   152 -2.183255027918394E-004
                   153 -7.056842195155131E-004
                   154  2.219799113745143E-004
                   155 -9.460991082873698E-005
                   156 -4.400007817295818E-013
                   157  2.833969900821426E-005
                   158 -2.304391990685028E-004
                   159  5.590425134650253E-012
                   160 -2.617823765547672E-005