[Molden Format]
[Atoms] AU
  N     1    7     0.0000000000    0.0000000000   -4.3668474600        
  C     2    6     0.0000000000    0.0000000000   -1.7740464400        
  C     3    6     0.0000000000   -2.3573011600   -0.4721992900        
  C     4    6     0.0000000000    2.3573011600   -0.4721992900        
  C     5    6     0.0000000000   -2.3296821800    2.2151673000        
  C     6    6     0.0000000000    2.3296821800    2.2151673000        
  C     7    6     0.0000000000    0.0000000000    3.5024729200        
  H     8    1     0.0000000000   -1.6426100600   -5.3349761600        
  H     9    1     0.0000000000    1.6426100600   -5.3349761600        
  H    10    1     0.0000000000   -4.0927870300   -1.5120461700        
  H    11    1     0.0000000000    4.0927870300   -1.5120461700        
  H    12    1     0.0000000000   -4.0641945300    3.2578227800        
  H    13    1     0.0000000000    4.0641945300    3.2578227800        
  H    14    1     0.0000000000    0.0000000000    5.5323986300        
[5D]
[7F]
[GTO]
  1  0
   s    12 1.00
  0.114200D+05  0.172695D-04
  0.171200D+04  0.134411D-03
  0.389300D+03  0.694561D-03
  0.110000D+03  0.278531D-02
  0.355700D+02  0.863457D-02
  0.125400D+02  0.199805D-01
  0.464400D+01  0.262908D-01
  0.129300D+01 -0.243845D-01
  0.511800D+00 -0.924934D-01
  0.178700D+00 -0.339683D+00
  0.246240D-01  0.345111D+00
  0.112530D-01  0.752750D+00
   s    10 1.00
  0.114200D+05  0.523000D-03
  0.171200D+04  0.404500D-02
  0.389300D+03  0.207750D-01
  0.110000D+03  0.807269D-01
  0.355700D+02  0.233074D+00
  0.125400D+02  0.433501D+00
  0.464400D+01  0.347472D+00
  0.129300D+01  0.412620D-01
  0.511800D+00 -0.850799D-02
  0.178700D+00  0.238400D-02
   s    10 1.00
  0.114200D+05 -0.115000D-03
  0.171200D+04 -0.895000D-03
  0.389300D+03 -0.462400D-02
  0.110000D+03 -0.185280D-01
  0.355700D+02 -0.573390D-01
  0.125400D+02 -0.132076D+00
  0.464400D+01 -0.172510D+00
  0.129300D+01  0.151814D+00
  0.511800D+00  0.599944D+00
  0.178700D+00  0.387462D+00
   s     1 1.00
  0.129300D+01  0.100000D+01
   s     1 1.00
  0.178700D+00  0.100000D+01
   p     5 1.00
  0.266300D+02  0.146700D-01
  0.594800D+01  0.917640D-01
  0.174200D+01  0.298683D+00
  0.555000D+00  0.498487D+00
  0.172500D+00  0.337023D+00
   p     1 1.00
  0.174200D+01  0.100000D+01
   p     1 1.00
  0.555000D+00  0.100000D+01
   d     1 1.00
  0.165400D+01  0.100000D+01
   d     1 1.00
  0.469000D+00  0.100000D+01
   f     1 1.00
  0.109300D+01  0.100000D+01
  
  2  0
   s    10 1.00
  0.823600D+04  0.531000D-03
  0.123500D+04  0.410800D-02
  0.280800D+03  0.210870D-01
  0.792700D+02  0.818530D-01
  0.255900D+02  0.234817D+00
  0.899700D+01  0.434401D+00
  0.331900D+01  0.346129D+00
  0.905900D+00  0.393780D-01
  0.364300D+00 -0.898300D-02
  0.128500D+00  0.238500D-02
   s    10 1.00
  0.823600D+04 -0.113000D-03
  0.123500D+04 -0.878000D-03
  0.280800D+03 -0.454000D-02
  0.792700D+02 -0.181330D-01
  0.255900D+02 -0.557600D-01
  0.899700D+01 -0.126895D+00
  0.331900D+01 -0.170352D+00
  0.905900D+00  0.140382D+00
  0.364300D+00  0.598684D+00
  0.128500D+00  0.395389D+00
   s     1 1.00
  0.905900D+00  0.100000D+01
   s     1 1.00
  0.364300D+00  0.100000D+01
   p     5 1.00
  0.187100D+02  0.140310D-01
  0.413300D+01  0.868660D-01
  0.120000D+01  0.290216D+00
  0.382700D+00  0.501008D+00
  0.120900D+00  0.343406D+00
   p     1 1.00
  0.382700D+00  0.100000D+01
   p     1 1.00
  0.120900D+00  0.100000D+01
   d     1 1.00
  0.109700D+01  0.100000D+01
   d     1 1.00
  0.318000D+00  0.100000D+01
   f     1 1.00
  0.761000D+00  0.100000D+01
  
  3  0
   s    10 1.00
  0.823600D+04  0.531000D-03
  0.123500D+04  0.410800D-02
  0.280800D+03  0.210870D-01
  0.792700D+02  0.818530D-01
  0.255900D+02  0.234817D+00
  0.899700D+01  0.434401D+00
  0.331900D+01  0.346129D+00
  0.905900D+00  0.393780D-01
  0.364300D+00 -0.898300D-02
  0.128500D+00  0.238500D-02
   s    10 1.00
  0.823600D+04 -0.113000D-03
  0.123500D+04 -0.878000D-03
  0.280800D+03 -0.454000D-02
  0.792700D+02 -0.181330D-01
  0.255900D+02 -0.557600D-01
  0.899700D+01 -0.126895D+00
  0.331900D+01 -0.170352D+00
  0.905900D+00  0.140382D+00
  0.364300D+00  0.598684D+00
  0.128500D+00  0.395389D+00
   s     1 1.00
  0.905900D+00  0.100000D+01
   s     1 1.00
  0.364300D+00  0.100000D+01
   p     5 1.00
  0.187100D+02  0.140310D-01
  0.413300D+01  0.868660D-01
  0.120000D+01  0.290216D+00
  0.382700D+00  0.501008D+00
  0.120900D+00  0.343406D+00
   p     1 1.00
  0.382700D+00  0.100000D+01
   p     1 1.00
  0.120900D+00  0.100000D+01
   d     1 1.00
  0.109700D+01  0.100000D+01
   d     1 1.00
  0.318000D+00  0.100000D+01
   f     1 1.00
  0.761000D+00  0.100000D+01
  
  4  0
   s    10 1.00
  0.823600D+04  0.531000D-03
  0.123500D+04  0.410800D-02
  0.280800D+03  0.210870D-01
  0.792700D+02  0.818530D-01
  0.255900D+02  0.234817D+00
  0.899700D+01  0.434401D+00
  0.331900D+01  0.346129D+00
  0.905900D+00  0.393780D-01
  0.364300D+00 -0.898300D-02
  0.128500D+00  0.238500D-02
   s    10 1.00
  0.823600D+04 -0.113000D-03
  0.123500D+04 -0.878000D-03
  0.280800D+03 -0.454000D-02
  0.792700D+02 -0.181330D-01
  0.255900D+02 -0.557600D-01
  0.899700D+01 -0.126895D+00
  0.331900D+01 -0.170352D+00
  0.905900D+00  0.140382D+00
  0.364300D+00  0.598684D+00
  0.128500D+00  0.395389D+00
   s     1 1.00
  0.905900D+00  0.100000D+01
   s     1 1.00
  0.364300D+00  0.100000D+01
   p     5 1.00
  0.187100D+02  0.140310D-01
  0.413300D+01  0.868660D-01
  0.120000D+01  0.290216D+00
  0.382700D+00  0.501008D+00
  0.120900D+00  0.343406D+00
   p     1 1.00
  0.382700D+00  0.100000D+01
   p     1 1.00
  0.120900D+00  0.100000D+01
   d     1 1.00
  0.109700D+01  0.100000D+01
   d     1 1.00
  0.318000D+00  0.100000D+01
   f     1 1.00
  0.761000D+00  0.100000D+01
  
  5  0
   s    10 1.00
  0.823600D+04  0.531000D-03
  0.123500D+04  0.410800D-02
  0.280800D+03  0.210870D-01
  0.792700D+02  0.818530D-01
  0.255900D+02  0.234817D+00
  0.899700D+01  0.434401D+00
  0.331900D+01  0.346129D+00
  0.905900D+00  0.393780D-01
  0.364300D+00 -0.898300D-02
  0.128500D+00  0.238500D-02
   s    10 1.00
  0.823600D+04 -0.113000D-03
  0.123500D+04 -0.878000D-03
  0.280800D+03 -0.454000D-02
  0.792700D+02 -0.181330D-01
  0.255900D+02 -0.557600D-01
  0.899700D+01 -0.126895D+00
  0.331900D+01 -0.170352D+00
  0.905900D+00  0.140382D+00
  0.364300D+00  0.598684D+00
  0.128500D+00  0.395389D+00
   s     1 1.00
  0.905900D+00  0.100000D+01
   s     1 1.00
  0.364300D+00  0.100000D+01
   p     5 1.00
  0.187100D+02  0.140310D-01
  0.413300D+01  0.868660D-01
  0.120000D+01  0.290216D+00
  0.382700D+00  0.501008D+00
  0.120900D+00  0.343406D+00
   p     1 1.00
  0.382700D+00  0.100000D+01
   p     1 1.00
  0.120900D+00  0.100000D+01
   d     1 1.00
  0.109700D+01  0.100000D+01
   d     1 1.00
  0.318000D+00  0.100000D+01
   f     1 1.00
  0.761000D+00  0.100000D+01
  
  6  0
   s    10 1.00
  0.823600D+04  0.531000D-03
  0.123500D+04  0.410800D-02
  0.280800D+03  0.210870D-01
  0.792700D+02  0.818530D-01
  0.255900D+02  0.234817D+00
  0.899700D+01  0.434401D+00
  0.331900D+01  0.346129D+00
  0.905900D+00  0.393780D-01
  0.364300D+00 -0.898300D-02
  0.128500D+00  0.238500D-02
   s    10 1.00
  0.823600D+04 -0.113000D-03
  0.123500D+04 -0.878000D-03
  0.280800D+03 -0.454000D-02
  0.792700D+02 -0.181330D-01
  0.255900D+02 -0.557600D-01
  0.899700D+01 -0.126895D+00
  0.331900D+01 -0.170352D+00
  0.905900D+00  0.140382D+00
  0.364300D+00  0.598684D+00
  0.128500D+00  0.395389D+00
   s     1 1.00
  0.905900D+00  0.100000D+01
   s     1 1.00
  0.364300D+00  0.100000D+01
   p     5 1.00
  0.187100D+02  0.140310D-01
  0.413300D+01  0.868660D-01
  0.120000D+01  0.290216D+00
  0.382700D+00  0.501008D+00
  0.120900D+00  0.343406D+00
   p     1 1.00
  0.382700D+00  0.100000D+01
   p     1 1.00
  0.120900D+00  0.100000D+01
   d     1 1.00
  0.109700D+01  0.100000D+01
   d     1 1.00
  0.318000D+00  0.100000D+01
   f     1 1.00
  0.761000D+00  0.100000D+01
  
  7  0
   s    10 1.00
  0.823600D+04  0.531000D-03
  0.123500D+04  0.410800D-02
  0.280800D+03  0.210870D-01
  0.792700D+02  0.818530D-01
  0.255900D+02  0.234817D+00
  0.899700D+01  0.434401D+00
  0.331900D+01  0.346129D+00
  0.905900D+00  0.393780D-01
  0.364300D+00 -0.898300D-02
  0.128500D+00  0.238500D-02
   s    10 1.00
  0.823600D+04 -0.113000D-03
  0.123500D+04 -0.878000D-03
  0.280800D+03 -0.454000D-02
  0.792700D+02 -0.181330D-01
  0.255900D+02 -0.557600D-01
  0.899700D+01 -0.126895D+00
  0.331900D+01 -0.170352D+00
  0.905900D+00  0.140382D+00
  0.364300D+00  0.598684D+00
  0.128500D+00  0.395389D+00
   s     1 1.00
  0.905900D+00  0.100000D+01
   s     1 1.00
  0.364300D+00  0.100000D+01
   p     5 1.00
  0.187100D+02  0.140310D-01
  0.413300D+01  0.868660D-01
  0.120000D+01  0.290216D+00
  0.382700D+00  0.501008D+00
  0.120900D+00  0.343406D+00
   p     1 1.00
  0.382700D+00  0.100000D+01
   p     1 1.00
  0.120900D+00  0.100000D+01
   d     1 1.00
  0.109700D+01  0.100000D+01
   d     1 1.00
  0.318000D+00  0.100000D+01
   f     1 1.00
  0.761000D+00  0.100000D+01
  
  8  0
   s     4 1.00
  0.130100D+02  0.196850D-01
  0.196200D+01  0.137977D+00
  0.444600D+00  0.478148D+00
  0.122000D+00  0.501240D+00
   s     1 1.00
  0.122000D+00  0.100000D+01
   p     1 1.00
  0.727000D+00  0.100000D+01
  
  9  0
   s     4 1.00
  0.130100D+02  0.196850D-01
  0.196200D+01  0.137977D+00
  0.444600D+00  0.478148D+00
  0.122000D+00  0.501240D+00
   s     1 1.00
  0.122000D+00  0.100000D+01
   p     1 1.00
  0.727000D+00  0.100000D+01
  
 10  0
   s     4 1.00
  0.130100D+02  0.196850D-01
  0.196200D+01  0.137977D+00
  0.444600D+00  0.478148D+00
  0.122000D+00  0.501240D+00
   s     1 1.00
  0.122000D+00  0.100000D+01
   p     1 1.00
  0.727000D+00  0.100000D+01
  
 11  0
   s     4 1.00
  0.130100D+02  0.196850D-01
  0.196200D+01  0.137977D+00
  0.444600D+00  0.478148D+00
  0.122000D+00  0.501240D+00
   s     1 1.00
  0.122000D+00  0.100000D+01
   p     1 1.00
  0.727000D+00  0.100000D+01
  
 12  0
   s     4 1.00
  0.130100D+02  0.196850D-01
  0.196200D+01  0.137977D+00
  0.444600D+00  0.478148D+00
  0.122000D+00  0.501240D+00
   s     1 1.00
  0.122000D+00  0.100000D+01
   p     1 1.00
  0.727000D+00  0.100000D+01
  
 13  0
   s     4 1.00
  0.130100D+02  0.196850D-01
  0.196200D+01  0.137977D+00
  0.444600D+00  0.478148D+00
  0.122000D+00  0.501240D+00
   s     1 1.00
  0.122000D+00  0.100000D+01
   p     1 1.00
  0.727000D+00  0.100000D+01
  
 14  0
   s     4 1.00
  0.130100D+02  0.196850D-01
  0.196200D+01  0.137977D+00
  0.444600D+00  0.478148D+00
  0.122000D+00  0.501240D+00
   s     1 1.00
  0.122000D+00  0.100000D+01
   p     1 1.00
  0.727000D+00  0.100000D+01
  
[MO]
 Sym= __1_A__
 Ene=  0.000000000000000E+000
 Spin= Alpha
 Occup=    2.00000000000000     
                     1  4.199293140681146E-005
                     2  0.998056414001201     
                     3  7.482250251306495E-003
                     4  2.107647319013871E-003
                     5  1.797893125580728E-003
                     6 -1.279012464121959E-012
                     7  2.615636509955505E-009
                     8  3.869847798608152E-003
                     9  1.750291102683110E-012
                    10  7.945024877360059E-009
                    11 -1.776711034181360E-004
                    12  4.601419713078529E-012
                    13 -4.346624843464584E-008
                    14 -2.942643567207371E-004
                    15  1.755031162106519E-004
                    16 -9.362988334110016E-013
                    17 -1.948437436873877E-010
                    18 -1.279346473445146E-004
                    19 -1.246053590466191E-013
                    20  5.543292528299627E-005
                    21  3.209583054146748E-012
                    22  2.091186346870283E-009
                    23  5.323826476950976E-004
                    24 -4.604375154553348E-013
                    25 -1.536065722147413E-004
                    26 -1.428486135749547E-013
                    27 -6.957361762199718E-010
                    28  1.007734862026172E-004
                    29  3.694038350909930E-012
                    30 -1.974643347243171E-012
                    31  7.998332190140029E-010
                    32 -2.698936537557071E-004
                    33  2.102642177910718E-003
                    34  1.967035133513218E-005
                    35  1.181493215262009E-005
                    36  1.821876063754077E-012
                    37  1.800044142697469E-008
                    38 -5.826405789830579E-003
                    39 -5.583589076103665E-013
                    40 -6.861888553392098E-008
                    41 -1.212458795320596E-004
                    42  1.053150154359947E-011
                    43 -5.521379812579954E-008
                    44  3.836315030404310E-003
                    45  3.435007791509371E-004
                    46 -3.126682613831960E-012
                    47  4.978173452016298E-009
                    48  1.251445792896895E-004
                    49 -1.007132628757797E-012
                    50  1.956963756972866E-004
                    51  9.215177750230767E-012
                    52 -9.707599659574634E-008
                    53 -3.727958727315398E-004
                    54 -8.906891932836622E-012
                    55 -7.134981164481212E-005
                    56  5.116737663926784E-014
                    57 -1.726080335804854E-009
                    58  8.193514033898922E-005
                    59 -6.685798483778946E-012
                    60 -1.402662048039202E-012
                    61  7.757760186918471E-010
                    62 -1.926970765490393E-004
                    63 -1.509368566994879E-003
                    64  4.899207425633054E-005
                    65  4.912255258673949E-004
                    66  6.632688339731490E-012
                    67 -7.388677843206157E-004
                    68  8.411839013911935E-004
                    69 -1.501155772488365E-011
                    70 -2.022521372806842E-005
                    71  5.042267275981575E-004
                    72 -1.039607185872697E-011
                    73 -4.241611974821770E-004
                    74 -2.013069087427795E-004
                    75  7.305519930702169E-005
                    76  4.151240219529932E-013
                    77 -8.527715047858162E-006
                    78  3.374248108247546E-005
                    79  1.887835410573256E-012
                    80 -2.660205996619699E-005
                    81 -5.449507060841967E-012
                    82  1.377559632899043E-004
                    83 -3.193071450845178E-005
                    84 -1.285297263660279E-011
                    85 -8.342409172498844E-005
                    86 -1.840991766045040E-012
                    87 -3.683278529408002E-005
                    88  1.826314643836512E-005
                    89  2.575112586369882E-012
                    90 -1.325764387760897E-012
                    91  5.634525073190641E-006
                    92 -1.926849652348084E-004
                    93 -1.509311851470622E-003
                    94  4.908381664666449E-005
                    95  4.909781363824044E-004
                    96 -7.126823297885575E-012
                    97  7.388871064501570E-004
                    98  8.412667551135417E-004
                    99  9.674737221692038E-012
                   100  2.011399711795575E-005
                   101  5.038378158976851E-004
                   102 -4.164631343736667E-012
                   103  4.238467537157709E-004
                   104 -2.013644019260812E-004
                   105  7.304031153528266E-005
                   106 -4.151888953867651E-013
                   107  8.537325572691182E-006
                   108  3.374341414025526E-005
                   109 -5.427666114026076E-013
                   110 -2.688103189183957E-005
                   111 -5.693526309897761E-012
                   112 -1.377947773964524E-004
                   113 -3.200030243206346E-005
                   114 -1.706703252548911E-012
                   115 -8.338180512621003E-005
                   116  7.105533555068018E-013
                   117  3.682783158558408E-005
                   118  1.826391112606207E-005
                   119  4.070136558068686E-012
                   120  5.587856899963460E-015
                   121 -5.632801669450073E-006
                   122 -1.113280813172948E-004
                   123  6.182522279726867E-005
                   124  8.114765702626911E-005
                   125  1.748617463016866E-004
                   126 -2.920978071014803E-012
                   127  2.468073752576586E-005
                   128 -7.247215449260975E-004
                   129  9.389874266993241E-012
                   130  4.899875627268883E-005
                   131  2.622851418170299E-004
                   132  5.663315534282053E-012
                   133 -2.210682751408261E-004
                   134  5.961919952966145E-004
                   135 -8.198406108514469E-006
                   136  1.869345451308534E-012
                   137 -6.671678972240049E-007
                   138 -1.241785133266559E-006
                   139 -4.972635374007970E-012
                   140 -1.626094861045485E-004
                   141 -1.171946933675964E-011
                   142  1.503845651452716E-004
                   143  2.194500935541726E-005
                   144  7.165410624899895E-012
                   145 -3.696962902931253E-005
                   146  1.576545900036385E-012
                   147  3.095210075810379E-006
                   148 -9.968408229272669E-006
                   149 -1.897504112807926E-012
                   150 -2.025672571136528E-012
                   151 -3.752808010088029E-006
                   152 -1.116387265821678E-004
                   153  6.072788833831146E-005
                   154  8.088231779638380E-005
                   155  1.765756167859673E-004
                   156 -4.685186237887788E-012
                   157 -2.470313970186574E-005
                   158 -7.246707141372266E-004
                   159  7.860286739113602E-012
                   160 -4.902185030607922E-005
                   161  2.620028593853254E-004
                   162  5.833650158278245E-012
                   163  2.214017975094845E-004
                   164  5.961184080176172E-004
                   165 -8.170893862129201E-006
                   166 -2.813766777671899E-012
                   167  6.716348706637577E-007
                   168 -1.264757410962564E-006
                   169 -4.480210912924956E-012
                   170 -1.624966444247294E-004
                   171  1.604430027148276E-012
                   172 -1.504485780128888E-004
                   173  2.194417250041004E-005
                   174  1.649083074551355E-012
                   175 -3.691771417856726E-005
                   176  9.716852932332318E-013
                   177 -3.081527595288268E-006
                   178 -9.993122889622026E-006
                   179  2.387238252934335E-012
                   180  3.582089965271514E-012
                   181  3.748968705756006E-006
                   182 -7.900737237354003E-005
                   183 -2.146592037731172E-004
                   184  2.893941002979497E-005
                   185  7.748492013199218E-005
                   186 -4.929919653339179E-012
                   187  1.332052092652202E-008
                   188 -1.688749580524619E-005
                   189  1.513416349838403E-012
                   190 -1.078396193985019E-007
                   191  1.631118799924777E-005
                   192 -2.704708603823375E-012
                   193  8.424565180618447E-008
                   194  2.993535262656092E-005
                   195  2.067758367903325E-005
                   196 -1.929637662630983E-012
                   197  6.791005269579752E-009
                   198  8.394754327073931E-006
                   199 -1.822346338864110E-012
                   200  3.869198691606349E-005
                   201  5.472160389843089E-012
                   202  6.424976324296597E-008
                   203  6.027142967990602E-005
                   204 -1.822974042295229E-013
                   205 -5.751877957913440E-006
                   206 -2.870695640440001E-012
                   207 -4.005779144983075E-009
                   208 -2.841018756825280E-006
                   209  3.287769319431120E-014
                   210 -8.381281870175644E-013
                   211  7.943731010682487E-009
                   212  3.664496317980010E-003
                   213 -2.294448308023759E-003
                   214 -4.430550969733864E-013
                   215  4.291671902974220E-004
                   216  3.335185017033686E-004
                   217  3.664548610431695E-003
                   218 -2.294468966163195E-003
                   219  3.156176775526322E-012
                   220 -4.291899988023577E-004
                   221  3.335284451253217E-004
                   222 -5.790316846516615E-004
                   223 -8.617079560775674E-005
                   224 -3.328737404585530E-012
                   225 -1.263659810359541E-005
                   226 -3.869688466103839E-005
                   227 -5.790769314160600E-004
                   228 -8.600502909148653E-005
                   229  1.759882326913589E-012
                   230  1.262303442359531E-005
                   231 -3.871623278633110E-005
                   232 -1.884762224836602E-004
                   233 -3.683550013854961E-004
                   234  3.622187133566512E-012
                   235 -1.154997410744891E-006
                   236  2.954592129828509E-006
                   237 -1.885788804844631E-004
                   238 -3.683571053561060E-004
                   239 -1.299881717320781E-012
                   240  1.200990915219150E-006
                   241  2.984212641550895E-006
                   242  1.015781522750487E-004
                   243 -9.855959394697910E-005
                   244 -5.681420249148501E-013
                   245 -7.311458095033397E-009
                   246  8.134710965146531E-006
 Sym= __2_A__
 Ene=  0.000000000000000E+000
 Spin= Alpha
 Occup=    2.00000000000000     
                     1 -4.503587473980976E-005
                     2 -1.587372697587985E-004
                     3  1.955876478724262E-003
                     4  4.759917529616980E-005
                     5  1.136823705801487E-003
                     6  4.444899737536795E-012
                     7  3.047263177598732E-009
                     8  2.626888281472376E-003
                     9 -5.080631585824368E-012
                    10 -2.485085147751889E-009
                    11 -4.171350091287585E-005
                    12  1.769271812461125E-012
                    13  4.142144804140629E-009
                    14 -3.773737542187764E-004
                    15  5.813534947750866E-005
                    16 -1.952830405297291E-014
                    17  1.476129136693266E-010
                    18  6.327415264376734E-005
                    19 -3.274037852852478E-013
                    20 -2.305793584128351E-004
                    21  6.519106964280121E-012
                    22  1.196202203773513E-009
                    23 -3.403193486830216E-004
                    24 -1.284274145583967E-012
                    25  1.801513766105699E-004
                    26 -1.731899866577528E-013
                    27 -5.520236324439867E-010
                    28 -1.078239103183112E-005
                    29 -2.120420216609828E-012
                    30 -8.774908779368922E-013
                    31  5.166101502231817E-010
                    32   1.00108417573223     
                    33  9.025704752152069E-003
                    34  2.588944183488553E-003
                    35 -7.921932003477307E-003
                    36  6.790174966529593E-012
                    37 -4.426326342911674E-009
                    38 -3.603995935570690E-003
                    39 -4.542831818973412E-012
                    40  1.050393550900999E-009
                    41  1.031741171281748E-003
                    42  6.176736640692796E-013
                    43 -3.863894335268470E-008
                    44  4.026589481945356E-003
                    45  3.245740614069273E-004
                    46 -2.651953984636323E-013
                    47 -2.363737971877903E-009
                    48 -4.515730711935844E-004
                    49  5.000760412543222E-013
                    50  7.994406474462704E-004
                    51  9.719100910686386E-012
                    52  1.089053183131636E-008
                    53  1.144330288581494E-003
                    54  1.159004739666079E-011
                    55  3.236872962681944E-004
                    56 -1.538579545631557E-012
                    57  3.098247107119581E-010
                    58 -1.969014335521556E-004
                    59  4.563724755552547E-012
                    60 -4.242035795728170E-013
                    61  1.620045405030348E-009
                    62  8.947518204871831E-003
                    63 -1.989402771278748E-003
                    64 -2.902788466148307E-004
                    65  3.122721807481875E-003
                    66  8.276181880046233E-012
                    67  1.612669401511956E-004
                    68 -1.894662739997966E-005
                    69  3.427876668086944E-012
                    70  6.178479503810400E-004
                    71 -1.845045692157280E-004
                    72 -1.135340396175390E-011
                    73 -2.072537732747200E-003
                    74  1.098130963844116E-005
                    75 -2.418330876420408E-005
                    76 -2.033918689730438E-012
                    77  1.553059494734861E-005
                    78  1.886414114944035E-005
                    79  3.243560651237335E-012
                    80  8.240388168442079E-004
                    81  2.817031648164688E-012
                    82 -5.900771689413257E-004
                    83  3.159668440745472E-005
                    84  4.172887595206770E-012
                    85  5.706016711228788E-005
                    86  2.198629693173041E-012
                    87  6.444773282059841E-005
                    88 -1.063015466963824E-004
                    89 -5.389527619212339E-012
                    90  1.610415896313955E-012
                    91  6.465189567046905E-005
                    92  8.947495890950738E-003
                    93 -1.989472763227822E-003
                    94 -2.903104002109239E-004
                    95  3.122859965653744E-003
                    96  1.080993006538318E-011
                    97 -1.612658572216684E-004
                    98 -1.896734917822491E-005
                    99 -1.315150623714223E-011
                   100 -6.178499996348138E-004
                   101 -1.844154180544910E-004
                   102 -8.967378775579870E-012
                   103  2.072647853102592E-003
                   104  1.088124052668212E-005
                   105 -2.417395213229635E-005
                   106  4.001008193399119E-012
                   107 -1.553532257967263E-005
                   108  1.886304387184518E-005
                   109 -1.736663457008460E-012
                   110  8.240874281843723E-004
                   111  3.623995780071075E-012
                   112  5.901120062929635E-004
                   113  3.161133711898780E-005
                   114  7.649486406330395E-012
                   115  5.704860678329353E-005
                   116 -1.605500519945091E-014
                   117 -6.444747224067464E-005
                   118 -1.062996434499767E-004
                   119 -3.941915805711970E-012
                   120 -3.579052326644623E-012
                   121 -6.465109292427749E-005
                   122 -2.185635645111229E-004
                   123 -7.064746445320395E-004
                   124  2.219220332856950E-004
                   125 -9.377433331257318E-005
                   126  3.947490803635843E-012
                   127 -2.835030472165022E-005
                   128 -2.304366924713481E-004
                   129 -5.269275598217292E-012
                   130  2.622759322569003E-005
                   131  4.719675841697771E-004
                   132  1.285750220738966E-011
                   133  3.449661792136150E-004
                   134  6.707414128461306E-004
                   135 -1.335467962890198E-005
                   136 -1.420019467304382E-012
                   137  4.776018124814232E-005
                   138  1.204574866897174E-005
                   139  3.764937272486991E-013
                   140 -3.007614786144174E-004
                   141  2.964012060419509E-012
                   142 -2.854144901630133E-004
                   143 -1.599866561856092E-005
                   144  4.715389908938029E-012
                   145 -8.782874980556344E-006
                   146 -1.369522373382756E-012
                   147 -3.601121097946809E-005
                   148 -2.881370551559394E-005
                   149 -2.119104662899319E-012
                   150 -6.240778425711043E-013
                   151 -4.415525409332922E-006
                   152 -2.183254677920729E-004
                   153 -7.056843033338365E-004
                   154  2.219799150966517E-004
                   155 -9.460991236629101E-005
                   156 -4.400008690664062E-013
                   157  2.833972344863846E-005
                   158 -2.304390110918629E-004
                   159  5.590425201358618E-012
                   160 -2.617824591044115E-005