[Molden Format]
[Atoms] AU
  N     1    7    -0.0205367200   -4.2910568000    0.0000000200        
  C     2    6     0.0901128000   -1.7564437400    0.0000000000        
  C     3    6    -2.2465144000   -0.3866666000    0.0000000000        
  C     4    6     2.3809048100   -0.3087727200   -0.0000000200        
  C     5    6    -2.2560261400    2.1956889600   -0.0000000100        
  C     6    6     2.3213974900    2.2718125700    0.0000000000        
  C     7    6     0.0142369500    3.5541877800    0.0000000000        
  H     8    1    -3.8352523500   -7.0780085500    0.0000000100        
  H     9    1     1.7858907800   -5.0176621700    0.0000000200        
  H    10    1    -3.9716190900   -1.4461130500   -0.0000000100        
  H    11    1     4.1540031500   -1.2968462500   -0.0000000300        
  H    12    1    -4.0184873400    3.2016402500   -0.0000000200        
  H    13    1     4.0532286200    3.3296734400    0.0000000100        
  H    14    1    -0.0185707600    5.5818913000    0.0000000200        
[5D]
[7F]
[GTO]
  1  0
   s    12 1.00
  0.114200D+05  0.172695D-04
  0.171200D+04  0.134411D-03
  0.389300D+03  0.694561D-03
  0.110000D+03  0.278531D-02
  0.355700D+02  0.863457D-02
  0.125400D+02  0.199805D-01
  0.464400D+01  0.262908D-01
  0.129300D+01 -0.243845D-01
  0.511800D+00 -0.924934D-01
  0.178700D+00 -0.339683D+00
  0.246240D-01  0.345111D+00
  0.112530D-01  0.752750D+00
   s    10 1.00
  0.114200D+05  0.523000D-03
  0.171200D+04  0.404500D-02
  0.389300D+03  0.207750D-01
  0.110000D+03  0.807269D-01
  0.355700D+02  0.233074D+00
  0.125400D+02  0.433501D+00
  0.464400D+01  0.347472D+00
  0.129300D+01  0.412620D-01
  0.511800D+00 -0.850799D-02
  0.178700D+00  0.238400D-02
   s    10 1.00
  0.114200D+05 -0.115000D-03
  0.171200D+04 -0.895000D-03
  0.389300D+03 -0.462400D-02
  0.110000D+03 -0.185280D-01
  0.355700D+02 -0.573390D-01
  0.125400D+02 -0.132076D+00
  0.464400D+01 -0.172510D+00
  0.129300D+01  0.151814D+00
  0.511800D+00  0.599944D+00
  0.178700D+00  0.387462D+00
   s     1 1.00
  0.129300D+01  0.100000D+01
   s     1 1.00
  0.178700D+00  0.100000D+01
   p     5 1.00
  0.266300D+02  0.146700D-01
  0.594800D+01  0.917640D-01
  0.174200D+01  0.298683D+00
  0.555000D+00  0.498487D+00
  0.172500D+00  0.337023D+00
   p     1 1.00
  0.174200D+01  0.100000D+01
   p     1 1.00
  0.555000D+00  0.100000D+01
   d     1 1.00
  0.165400D+01  0.100000D+01
   d     1 1.00
  0.469000D+00  0.100000D+01
   f     1 1.00
  0.109300D+01  0.100000D+01
  
  2  0
   s    10 1.00
  0.823600D+04  0.531000D-03
  0.123500D+04  0.410800D-02
  0.280800D+03  0.210870D-01
  0.792700D+02  0.818530D-01
  0.255900D+02  0.234817D+00
  0.899700D+01  0.434401D+00
  0.331900D+01  0.346129D+00
  0.905900D+00  0.393780D-01
  0.364300D+00 -0.898300D-02
  0.128500D+00  0.238500D-02
   s    10 1.00
  0.823600D+04 -0.113000D-03
  0.123500D+04 -0.878000D-03
  0.280800D+03 -0.454000D-02
  0.792700D+02 -0.181330D-01
  0.255900D+02 -0.557600D-01
  0.899700D+01 -0.126895D+00
  0.331900D+01 -0.170352D+00
  0.905900D+00  0.140382D+00
  0.364300D+00  0.598684D+00
  0.128500D+00  0.395389D+00
   s     1 1.00
  0.905900D+00  0.100000D+01
   s     1 1.00
  0.364300D+00  0.100000D+01
   p     5 1.00
  0.187100D+02  0.140310D-01
  0.413300D+01  0.868660D-01
  0.120000D+01  0.290216D+00
  0.382700D+00  0.501008D+00
  0.120900D+00  0.343406D+00
   p     1 1.00
  0.382700D+00  0.100000D+01
   p     1 1.00
  0.120900D+00  0.100000D+01
   d     1 1.00
  0.109700D+01  0.100000D+01
   d     1 1.00
  0.318000D+00  0.100000D+01
   f     1 1.00
  0.761000D+00  0.100000D+01
  
  3  0
   s    10 1.00
  0.823600D+04  0.531000D-03
  0.123500D+04  0.410800D-02
  0.280800D+03  0.210870D-01
  0.792700D+02  0.818530D-01
  0.255900D+02  0.234817D+00
  0.899700D+01  0.434401D+00
  0.331900D+01  0.346129D+00
  0.905900D+00  0.393780D-01
  0.364300D+00 -0.898300D-02
  0.128500D+00  0.238500D-02
   s    10 1.00
  0.823600D+04 -0.113000D-03
  0.123500D+04 -0.878000D-03
  0.280800D+03 -0.454000D-02
  0.792700D+02 -0.181330D-01
  0.255900D+02 -0.557600D-01
  0.899700D+01 -0.126895D+00
  0.331900D+01 -0.170352D+00
  0.905900D+00  0.140382D+00
  0.364300D+00  0.598684D+00
  0.128500D+00  0.395389D+00
   s     1 1.00
  0.905900D+00  0.100000D+01
   s     1 1.00
  0.364300D+00  0.100000D+01
   p     5 1.00
  0.187100D+02  0.140310D-01
  0.413300D+01  0.868660D-01
  0.120000D+01  0.290216D+00
  0.382700D+00  0.501008D+00
  0.120900D+00  0.343406D+00
   p     1 1.00
  0.382700D+00  0.100000D+01
   p     1 1.00
  0.120900D+00  0.100000D+01
   d     1 1.00
  0.109700D+01  0.100000D+01
   d     1 1.00
  0.318000D+00  0.100000D+01
   f     1 1.00
  0.761000D+00  0.100000D+01
  
  4  0
   s    10 1.00
  0.823600D+04  0.531000D-03
  0.123500D+04  0.410800D-02
  0.280800D+03  0.210870D-01
  0.792700D+02  0.818530D-01
  0.255900D+02  0.234817D+00
  0.899700D+01  0.434401D+00
  0.331900D+01  0.346129D+00
  0.905900D+00  0.393780D-01
  0.364300D+00 -0.898300D-02
  0.128500D+00  0.238500D-02
   s    10 1.00
  0.823600D+04 -0.113000D-03
  0.123500D+04 -0.878000D-03
  0.280800D+03 -0.454000D-02
  0.792700D+02 -0.181330D-01
  0.255900D+02 -0.557600D-01
  0.899700D+01 -0.126895D+00
  0.331900D+01 -0.170352D+00
  0.905900D+00  0.140382D+00
  0.364300D+00  0.598684D+00
  0.128500D+00  0.395389D+00
   s     1 1.00
  0.905900D+00  0.100000D+01
   s     1 1.00
  0.364300D+00  0.100000D+01
   p     5 1.00
  0.187100D+02  0.140310D-01
  0.413300D+01  0.868660D-01
  0.120000D+01  0.290216D+00
  0.382700D+00  0.501008D+00
  0.120900D+00  0.343406D+00
   p     1 1.00
  0.382700D+00  0.100000D+01
   p     1 1.00
  0.120900D+00  0.100000D+01
   d     1 1.00
  0.109700D+01  0.100000D+01
   d     1 1.00
  0.318000D+00  0.100000D+01
   f     1 1.00
  0.761000D+00  0.100000D+01
  
  5  0
   s    10 1.00
  0.823600D+04  0.531000D-03
  0.123500D+04  0.410800D-02
  0.280800D+03  0.210870D-01
  0.792700D+02  0.818530D-01
  0.255900D+02  0.234817D+00
  0.899700D+01  0.434401D+00
  0.331900D+01  0.346129D+00
  0.905900D+00  0.393780D-01
  0.364300D+00 -0.898300D-02
  0.128500D+00  0.238500D-02
   s    10 1.00
  0.823600D+04 -0.113000D-03
  0.123500D+04 -0.878000D-03
  0.280800D+03 -0.454000D-02
  0.792700D+02 -0.181330D-01
  0.255900D+02 -0.557600D-01
  0.899700D+01 -0.126895D+00
  0.331900D+01 -0.170352D+00
  0.905900D+00  0.140382D+00
  0.364300D+00  0.598684D+00
  0.128500D+00  0.395389D+00
   s     1 1.00
  0.905900D+00  0.100000D+01
   s     1 1.00
  0.364300D+00  0.100000D+01
   p     5 1.00
  0.187100D+02  0.140310D-01
  0.413300D+01  0.868660D-01
  0.120000D+01  0.290216D+00
  0.382700D+00  0.501008D+00
  0.120900D+00  0.343406D+00
   p     1 1.00
  0.382700D+00  0.100000D+01
   p     1 1.00
  0.120900D+00  0.100000D+01
   d     1 1.00
  0.109700D+01  0.100000D+01
   d     1 1.00
  0.318000D+00  0.100000D+01
   f     1 1.00
  0.761000D+00  0.100000D+01
  
  6  0
   s    10 1.00
  0.823600D+04  0.531000D-03
  0.123500D+04  0.410800D-02
  0.280800D+03  0.210870D-01
  0.792700D+02  0.818530D-01
  0.255900D+02  0.234817D+00
  0.899700D+01  0.434401D+00
  0.331900D+01  0.346129D+00
  0.905900D+00  0.393780D-01
  0.364300D+00 -0.898300D-02
  0.128500D+00  0.238500D-02
   s    10 1.00
  0.823600D+04 -0.113000D-03
  0.123500D+04 -0.878000D-03
  0.280800D+03 -0.454000D-02
  0.792700D+02 -0.181330D-01
  0.255900D+02 -0.557600D-01
  0.899700D+01 -0.126895D+00
  0.331900D+01 -0.170352D+00
  0.905900D+00  0.140382D+00
  0.364300D+00  0.598684D+00
  0.128500D+00  0.395389D+00
   s     1 1.00
  0.905900D+00  0.100000D+01
   s     1 1.00
  0.364300D+00  0.100000D+01
   p     5 1.00
  0.187100D+02  0.140310D-01
  0.413300D+01  0.868660D-01
  0.120000D+01  0.290216D+00
  0.382700D+00  0.501008D+00
  0.120900D+00  0.343406D+00
   p     1 1.00
  0.382700D+00  0.100000D+01
   p     1 1.00
  0.120900D+00  0.100000D+01
   d     1 1.00
  0.109700D+01  0.100000D+01
   d     1 1.00
  0.318000D+00  0.100000D+01
   f     1 1.00
  0.761000D+00  0.100000D+01
  
  7  0
   s    10 1.00
  0.823600D+04  0.531000D-03
  0.123500D+04  0.410800D-02
  0.280800D+03  0.210870D-01
  0.792700D+02  0.818530D-01
  0.255900D+02  0.234817D+00
  0.899700D+01  0.434401D+00
  0.331900D+01  0.346129D+00
  0.905900D+00  0.393780D-01
  0.364300D+00 -0.898300D-02
  0.128500D+00  0.238500D-02
   s    10 1.00
  0.823600D+04 -0.113000D-03
  0.123500D+04 -0.878000D-03
  0.280800D+03 -0.454000D-02
  0.792700D+02 -0.181330D-01
  0.255900D+02 -0.557600D-01
  0.899700D+01 -0.126895D+00
  0.331900D+01 -0.170352D+00
  0.905900D+00  0.140382D+00
  0.364300D+00  0.598684D+00
  0.128500D+00  0.395389D+00
   s     1 1.00
  0.905900D+00  0.100000D+01
   s     1 1.00
  0.364300D+00  0.100000D+01
   p     5 1.00
  0.187100D+02  0.140310D-01
  0.413300D+01  0.868660D-01
  0.120000D+01  0.290216D+00
  0.382700D+00  0.501008D+00
  0.120900D+00  0.343406D+00
   p     1 1.00
  0.382700D+00  0.100000D+01
   p     1 1.00
  0.120900D+00  0.100000D+01
   d     1 1.00
  0.109700D+01  0.100000D+01
   d     1 1.00
  0.318000D+00  0.100000D+01
   f     1 1.00
  0.761000D+00  0.100000D+01
  
  8  0
   s     4 1.00
  0.130100D+02  0.196850D-01
  0.196200D+01  0.137977D+00
  0.444600D+00  0.478148D+00
  0.122000D+00  0.501240D+00
   s     1 1.00
  0.122000D+00  0.100000D+01
   p     1 1.00
  0.727000D+00  0.100000D+01
  
  9  0
   s     4 1.00
  0.130100D+02  0.196850D-01
  0.196200D+01  0.137977D+00
  0.444600D+00  0.478148D+00
  0.122000D+00  0.501240D+00
   s     1 1.00
  0.122000D+00  0.100000D+01
   p     1 1.00
  0.727000D+00  0.100000D+01
  
 10  0
   s     4 1.00
  0.130100D+02  0.196850D-01
  0.196200D+01  0.137977D+00
  0.444600D+00  0.478148D+00
  0.122000D+00  0.501240D+00
   s     1 1.00
  0.122000D+00  0.100000D+01
   p     1 1.00
  0.727000D+00  0.100000D+01
  
 11  0
   s     4 1.00
  0.130100D+02  0.196850D-01
  0.196200D+01  0.137977D+00
  0.444600D+00  0.478148D+00
  0.122000D+00  0.501240D+00
   s     1 1.00
  0.122000D+00  0.100000D+01
   p     1 1.00
  0.727000D+00  0.100000D+01
  
 12  0
   s     4 1.00
  0.130100D+02  0.196850D-01
  0.196200D+01  0.137977D+00
  0.444600D+00  0.478148D+00
  0.122000D+00  0.501240D+00
   s     1 1.00
  0.122000D+00  0.100000D+01
   p     1 1.00
  0.727000D+00  0.100000D+01
  
 13  0
   s     4 1.00
  0.130100D+02  0.196850D-01
  0.196200D+01  0.137977D+00
  0.444600D+00  0.478148D+00
  0.122000D+00  0.501240D+00
   s     1 1.00
  0.122000D+00  0.100000D+01
   p     1 1.00
  0.727000D+00  0.100000D+01
  
 14  0
   s     4 1.00
  0.130100D+02  0.196850D-01
  0.196200D+01  0.137977D+00
  0.444600D+00  0.478148D+00
  0.122000D+00  0.501240D+00
   s     1 1.00
  0.122000D+00  0.100000D+01
   p     1 1.00
  0.727000D+00  0.100000D+01
  
[MO]
 Sym= __1_A'_
 Ene=  0.000000000000000E+000
 Spin= Alpha
 Occup=    2.00000000000000     
                     1  9.215917323421489E-005
                     2  0.998378846773691     
                     3 -4.019283102448075E-003
                     4  1.848139570865564E-003
                     5  6.520059795864866E-003
                     6  2.718809550398419E-003
                     7  5.571388977619763E-003
                     8  0.000000000000000E+000
                     9 -7.203223342730347E-004
                    10 -7.272683915469426E-004
                    11  0.000000000000000E+000
                    12 -2.445992902308754E-003
                    13 -1.971760725727655E-003
                    14  0.000000000000000E+000
                    15 -2.538339097825326E-005
                    16  0.000000000000000E+000
                    17  0.000000000000000E+000
                    18 -1.473647253259627E-004
                    19 -6.106202181333419E-005
                    20  1.088998174175233E-004
                    21  0.000000000000000E+000
                    22  0.000000000000000E+000
                    23 -1.711998608433693E-004
                    24  4.749154249332299E-004
                    25  0.000000000000000E+000
                    26 -3.026321368805083E-006
                    27 -4.264635497500327E-005
                    28  0.000000000000000E+000
                    29  0.000000000000000E+000
                    30  3.327714038028818E-005
                    31 -9.933967883333035E-005
                    32 -2.955058203256057E-004
                    33  2.360291404029916E-005
                    34  3.117311193446673E-004
                    35 -9.332362462877136E-005
                    36 -6.220693309975143E-005
                    37 -1.884212415656167E-003
                    38  0.000000000000000E+000
                    39  3.460030907409038E-004
                    40  8.985459286261149E-005
                    41  0.000000000000000E+000
                    42 -2.020464679557586E-003
                    43  4.769066599919696E-003
                    44  0.000000000000000E+000
                    45  1.292030778759163E-005
                    46  0.000000000000000E+000
                    47  0.000000000000000E+000
                    48 -9.720265625186455E-005
                    49  1.215550683444271E-005
                    50 -1.887629771624687E-004
                    51  0.000000000000000E+000
                    52  0.000000000000000E+000
                    53 -2.365268380833680E-006
                    54  7.521397629977747E-004
                    55  0.000000000000000E+000
                    56 -3.978488176762063E-006
                    57 -7.963382983905496E-005
                    58  0.000000000000000E+000
                    59  0.000000000000000E+000
                    60  1.827600874035678E-005
                    61 -1.331944771339336E-004
                    62 -5.308107994266067E-004
                    63 -1.974459782680725E-003
                    64 -9.564225224190228E-005
                    65  2.193760323948780E-003
                    66 -3.170749470287281E-004
                    67 -3.791740098804174E-005
                    68  0.000000000000000E+000
                    69  3.691989284052892E-004
                    70  8.727386801327535E-004
                    71  0.000000000000000E+000
                    72 -1.780677006416815E-003
                    73  6.362328422183973E-004
                    74  0.000000000000000E+000
                    75 -4.724182035433708E-005
                    76  0.000000000000000E+000
                    77  0.000000000000000E+000
                    78 -4.821121568542868E-005
                    79 -2.408238905892410E-005
                    80 -1.342306526711531E-004
                    81  0.000000000000000E+000
                    82  0.000000000000000E+000
                    83  2.072219494659720E-005
                    84 -1.991088275664570E-005
                    85  0.000000000000000E+000
                    86  9.147903439460043E-006
                    87 -4.572342847031704E-005
                    88  0.000000000000000E+000
                    89  0.000000000000000E+000
                    90 -3.040325185200429E-005
                    91 -1.562728875692136E-004
                    92 -1.751746695829108E-004
                    93 -5.189183380495514E-004
                    94  1.482244461708280E-004
                    95 -4.791480654750539E-005
                    96  6.238634459602047E-005
                    97 -1.218627324953462E-004
                    98  0.000000000000000E+000
                    99  3.344981962853815E-004
                   100  3.687739327475735E-004
                   101  0.000000000000000E+000
                   102  6.175681625396580E-004
                   103 -1.672399025434958E-003
                   104  0.000000000000000E+000
                   105 -1.466205559160972E-005
                   106  0.000000000000000E+000
                   107  0.000000000000000E+000
                   108 -3.481484568717982E-005
                   109 -1.146924149123263E-005
                   110  7.494558857575784E-005
                   111  0.000000000000000E+000
                   112  0.000000000000000E+000
                   113 -1.527353392436161E-004
                   114  1.108864822963373E-004
                   115  0.000000000000000E+000
                   116 -1.754381870022880E-005
                   117 -2.157861892503173E-005
                   118  0.000000000000000E+000
                   119  0.000000000000000E+000
                   120 -8.959179943466681E-006
                   121 -4.337445648929728E-005
                   122 -2.408066904905619E-004
                   123 -6.645000674094397E-004
                   124  1.718723285983764E-004
                   125  2.849883874112996E-004
                   126 -3.703560468848710E-005
                   127 -2.133260036258333E-004
                   128  0.000000000000000E+000
                   129  2.349383880168014E-004
                   130  6.417744825415760E-004
                   131  0.000000000000000E+000
                   132  4.241859489246686E-004
                   133  1.895833181420958E-003
                   134  0.000000000000000E+000
                   135  1.525211786804080E-005
                   136  0.000000000000000E+000
                   137  0.000000000000000E+000
                   138  4.906882519930282E-005
                   139 -4.384961366358845E-006
                   140  2.034648340679614E-004
                   141  0.000000000000000E+000
                   142  0.000000000000000E+000
                   143  3.922996478386912E-004
                   144  2.072169616248406E-004
                   145  0.000000000000000E+000
                   146 -1.223271871749366E-005
                   147 -6.337174506586100E-005
                   148  0.000000000000000E+000
                   149  0.000000000000000E+000
                   150 -1.074768200965993E-005
                   151 -5.575159950736889E-005
                   152 -1.327008114515418E-004
                   153 -4.189245510744141E-004
                   154  5.568875795725695E-005
                   155  1.985618841263365E-004
                   156  8.715109067497562E-006
                   157 -7.468931655418281E-007
                   158  0.000000000000000E+000
                   159 -8.218012963695076E-006
                   160  4.711340184485222E-005
                   161  0.000000000000000E+000
                   162  7.277206445550137E-004
                   163 -3.473938196006671E-004
                   164  0.000000000000000E+000
                   165  2.081226497638895E-006
                   166  0.000000000000000E+000
                   167  0.000000000000000E+000
                   168  5.101220475142556E-006
                   169  1.315966434278705E-005
                   170  1.073927680841263E-004
                   171  0.000000000000000E+000
                   172  0.000000000000000E+000
                   173  4.838517239484978E-005
                   174  3.918607889397646E-005
                   175  0.000000000000000E+000
                   176  4.380324531967443E-006
                   177 -1.419469445674958E-005
                   178  0.000000000000000E+000
                   179  0.000000000000000E+000
                   180 -2.534165157711988E-005
                   181 -3.065934494372196E-005
                   182 -1.353716793954787E-004
                   183 -4.013189651814249E-004
                   184  3.081386248337251E-005
                   185  2.109514907882002E-004
                   186 -4.510559279280382E-005
                   187 -5.808873183404895E-005
                   188  0.000000000000000E+000
                   189  2.533660885144055E-004
                   190  1.173962331717332E-004
                   191  0.000000000000000E+000
                   192  1.274941863660950E-003
                   193 -3.085246838145684E-004
                   194  0.000000000000000E+000
                   195  7.635098744762764E-007
                   196  0.000000000000000E+000
                   197  0.000000000000000E+000
                   198 -2.373429200737588E-006
                   199  4.065486363545105E-006
                   200 -7.525393528790999E-006
                   201  0.000000000000000E+000
                   202  0.000000000000000E+000
                   203 -6.577898878045810E-005
                   204 -1.939052801360313E-004
                   205  0.000000000000000E+000
                   206 -9.261180227274738E-006
                   207 -3.785378454846048E-006
                   208  0.000000000000000E+000
                   209  0.000000000000000E+000
                   210  7.710572746023899E-006
                   211 -3.763986211908168E-006
                   212 -2.029918694468916E-005
                   213  1.104300192032068E-004
                   214  1.725446402553536E-005
                   215  2.665838608654971E-005
                   216  0.000000000000000E+000
                   217 -1.231996142288998E-003
                   218 -4.109837203542328E-004
                   219 -2.033676281655849E-004
                   220  3.754525100775945E-005
                   221  0.000000000000000E+000
                   222 -1.558825998413956E-004
                   223 -6.428456436797810E-004
                   224  2.326036328680002E-005
                   225 -5.863835020746003E-005
                   226  0.000000000000000E+000
                   227  8.946033463802961E-005
                   228 -6.338148556929965E-004
                   229 -4.413615580369657E-005
                   230 -1.563333591722133E-005
                   231  0.000000000000000E+000
                   232  4.905141805759637E-005
                   233 -4.558576769104499E-004
                   234  1.476566339307078E-005
                   235 -4.125358114076504E-006
                   236  0.000000000000000E+000
                   237  4.178140890679518E-005
                   238 -3.573692156196649E-004
                   239 -1.001955827791343E-005
                   240 -3.364332168420626E-006
                   241  0.000000000000000E+000
                   242 -7.107171390003417E-005
                   243  8.801063078795516E-005
                   244  1.995110340584755E-008
                   245  2.917667047387061E-005
                   246  0.000000000000000E+000
 Sym= __2_A'_
 Ene=  0.000000000000000E+000
 Spin= Alpha
 Occup=    2.00000000000000     
                     1  4.747291002250403E-005
                     2  3.298369605078936E-004
                     3 -2.920943134330787E-003
                     4 -1.189431684643394E-004
                     5 -1.332379040696806E-003
                     6  3.421849543951170E-004
                     7 -2.762538334450957E-003
                     8  0.000000000000000E+000
                     9  2.610611591279937E-005
                    10  1.083077556450288E-004
                    11  0.000000000000000E+000
                    12  4.594591104394824E-005
                    13  2.967545762425409E-004
                    14  0.000000000000000E+000
                    15 -2.648788276036662E-005
                    16  0.000000000000000E+000
                    17  0.000000000000000E+000
                    18  4.374394449552652E-005
                    19 -1.966303390977410E-005
                    20  1.150040250716692E-004
                    21  0.000000000000000E+000
                    22  0.000000000000000E+000
                    23 -1.160067677928420E-004
                    24  1.512378863016591E-004
                    25  0.000000000000000E+000
                    26  1.807351991458851E-005
                    27 -9.410862774810274E-005
                    28  0.000000000000000E+000
                    29  0.000000000000000E+000
                    30  6.568279022200022E-005
                    31 -1.466385446389855E-004
                    32  -1.00089383553942     
                    33 -9.049601118289098E-003
                    34 -2.761755061674435E-003
                    35  8.065749760149375E-003
                    36  1.912457623718885E-004
                    37  3.232327277113624E-003
                    38  0.000000000000000E+000
                    39  1.228143044209850E-004
                    40 -2.066878871111273E-004
                    41  0.000000000000000E+000
                    42  1.649495659343385E-004
                    43 -4.001835672195097E-003
                    44  0.000000000000000E+000
                    45  5.263565230473693E-004
                    46  0.000000000000000E+000
                    47  0.000000000000000E+000
                    48  1.949836102339945E-004
                    49 -3.162797384864726E-005
                    50 -5.524156800279778E-004
                    51  0.000000000000000E+000
                    52  0.000000000000000E+000
                    53  6.593268180294630E-004
                    54  4.144238146481571E-004
                    55  0.000000000000000E+000
                    56 -1.302582689743761E-005
                    57 -9.869958046953764E-005
                    58  0.000000000000000E+000
                    59  0.000000000000000E+000
                    60  2.323025898899585E-005
                    61 -3.797398537725784E-004
                    62 -1.251363165416109E-002
                    63  2.039047325924603E-003
                    64  2.360485594524367E-004
                    65 -2.699761464431925E-003
                    66 -2.731263569844263E-005
                    67 -1.263323424495292E-004
                    68  0.000000000000000E+000
                    69 -5.176326005579816E-004
                    70 -1.579496743141054E-004
                    71  0.000000000000000E+000
                    72  2.093798856639658E-003
                    73 -2.668483464866141E-004
                    74  0.000000000000000E+000
                    75 -3.451730850327351E-005
                    76  0.000000000000000E+000
                    77  0.000000000000000E+000
                    78  7.276787284178422E-006
                    79 -4.007112738086576E-006
                    80  4.284519845776527E-004
                    81  0.000000000000000E+000
                    82  0.000000000000000E+000
                    83  6.610339614445928E-004
                    84  2.633111351272880E-004
                    85  0.000000000000000E+000
                    86 -2.908671012306501E-005
                    87  5.853230737159691E-005
                    88  0.000000000000000E+000
                    89  0.000000000000000E+000
                    90 -4.534500231370333E-005
                    91 -1.478950545158612E-004
                    92 -1.534400678595577E-002
                    93  2.106174925187070E-003
                    94  3.001380246732572E-004
                    95 -3.175144756721033E-003
                    96 -1.980416712772692E-004
                    97 -2.063551075913194E-004
                    98  0.000000000000000E+000
                    99  9.295739983869944E-004
                   100 -9.221002594347927E-006
                   101  0.000000000000000E+000
                   102 -1.693676442352532E-003
                   103  1.863973903019111E-005
                   104  0.000000000000000E+000
                   105 -2.341050938959093E-005
                   106  0.000000000000000E+000
                   107  0.000000000000000E+000
                   108  8.314669361973161E-006
                   109 -3.702339966280719E-006
                   110  4.195295591004662E-004
                   111  0.000000000000000E+000
                   112  0.000000000000000E+000
                   113  3.931141235288082E-004
                   114 -2.422199365449933E-004
                   115  0.000000000000000E+000
                   116  3.132379315577791E-005
                   117  7.315886566403398E-005
                   118  0.000000000000000E+000
                   119  0.000000000000000E+000
                   120  2.293454842123370E-006
                   121 -1.339044141699573E-004
                   122  7.547166417095255E-005
                   123  6.570080755365134E-004
                   124 -2.300246048040001E-004
                   125  1.350060727119706E-004
                   126 -2.843394009855813E-006
                   127  4.036834611570678E-004
                   128  0.000000000000000E+000
                   129  7.864491635253767E-005
                   130 -6.225794814387513E-004
                   131  0.000000000000000E+000
                   132 -3.739402478971328E-004
                   133 -9.206753791419389E-004
                   134  0.000000000000000E+000
                   135 -1.851000338965893E-005
                   136  0.000000000000000E+000
                   137  0.000000000000000E+000
                   138 -3.047451147064342E-006
                   139 -4.397736457732085E-005
                   140 -1.293769865810443E-004
                   141  0.000000000000000E+000
                   142  0.000000000000000E+000
                   143 -2.572149018000286E-004
                   144  1.066747860569385E-004
                   145  0.000000000000000E+000
                   146 -9.060036083763149E-006
                   147  3.665245009548190E-005
                   148  0.000000000000000E+000
                   149  0.000000000000000E+000
                   150  4.319571819790424E-005
                   151 -3.726394255649200E-005
                   152 -1.185861127142735E-004
                   153  6.223541712507265E-004
                   154 -2.295029284518339E-004
                   155  5.054895758455525E-005
                   156  3.917392746473014E-005
                   157  4.429298672792833E-004
                   158  0.000000000000000E+000
                   159 -1.324774077297881E-004
                   160 -5.505697741455430E-004