[Molden Format]
[Atoms] AU
  N     1    7    -0.0205367200   -4.2910568000    0.0000000200        
  C     2    6     0.0901128000   -1.7564437400    0.0000000000        
  C     3    6    -2.2465144000   -0.3866666000    0.0000000000        
  C     4    6     2.3809048100   -0.3087727200   -0.0000000200        
  C     5    6    -2.2560261400    2.1956889600   -0.0000000100        
  C     6    6     2.3213974900    2.2718125700    0.0000000000        
  C     7    6     0.0142369500    3.5541877800    0.0000000000        
  H     8    1    -3.8352523500   -7.0780085500    0.0000000100        
  H     9    1     1.7858907800   -5.0176621700    0.0000000200        
  H    10    1    -3.9716190900   -1.4461130500   -0.0000000100        
  H    11    1     4.1540031500   -1.2968462500   -0.0000000300        
  H    12    1    -4.0184873400    3.2016402500   -0.0000000200        
  H    13    1     4.0532286200    3.3296734400    0.0000000100        
  H    14    1    -0.0185707600    5.5818913000    0.0000000200        
[5D]
[7F]
[GTO]
  1  0
   s    12 1.00
  0.114200D+05  0.172695D-04
  0.171200D+04  0.134411D-03
  0.389300D+03  0.694561D-03
  0.110000D+03  0.278531D-02
  0.355700D+02  0.863457D-02
  0.125400D+02  0.199805D-01
  0.464400D+01  0.262908D-01
  0.129300D+01 -0.243845D-01
  0.511800D+00 -0.924934D-01
  0.178700D+00 -0.339683D+00
  0.246240D-01  0.345111D+00
  0.112530D-01  0.752750D+00
   s    10 1.00
  0.114200D+05  0.523000D-03
  0.171200D+04  0.404500D-02
  0.389300D+03  0.207750D-01
  0.110000D+03  0.807269D-01
  0.355700D+02  0.233074D+00
  0.125400D+02  0.433501D+00
  0.464400D+01  0.347472D+00
  0.129300D+01  0.412620D-01
  0.511800D+00 -0.850799D-02
  0.178700D+00  0.238400D-02
   s    10 1.00
  0.114200D+05 -0.115000D-03
  0.171200D+04 -0.895000D-03
  0.389300D+03 -0.462400D-02
  0.110000D+03 -0.185280D-01
  0.355700D+02 -0.573390D-01
  0.125400D+02 -0.132076D+00
  0.464400D+01 -0.172510D+00
  0.129300D+01  0.151814D+00
  0.511800D+00  0.599944D+00
  0.178700D+00  0.387462D+00
   s     1 1.00
  0.129300D+01  0.100000D+01
   s     1 1.00
  0.178700D+00  0.100000D+01
   p     5 1.00
  0.266300D+02  0.146700D-01
  0.594800D+01  0.917640D-01
  0.174200D+01  0.298683D+00
  0.555000D+00  0.498487D+00
  0.172500D+00  0.337023D+00
   p     1 1.00
  0.174200D+01  0.100000D+01
   p     1 1.00
  0.555000D+00  0.100000D+01
   d     1 1.00
  0.165400D+01  0.100000D+01
   d     1 1.00
  0.469000D+00  0.100000D+01
   f     1 1.00
  0.109300D+01  0.100000D+01
  
  2  0
   s    10 1.00
  0.823600D+04  0.531000D-03
  0.123500D+04  0.410800D-02
  0.280800D+03  0.210870D-01
  0.792700D+02  0.818530D-01
  0.255900D+02  0.234817D+00
  0.899700D+01  0.434401D+00
  0.331900D+01  0.346129D+00
  0.905900D+00  0.393780D-01
  0.364300D+00 -0.898300D-02
  0.128500D+00  0.238500D-02
   s    10 1.00
  0.823600D+04 -0.113000D-03
  0.123500D+04 -0.878000D-03
  0.280800D+03 -0.454000D-02
  0.792700D+02 -0.181330D-01
  0.255900D+02 -0.557600D-01
  0.899700D+01 -0.126895D+00
  0.331900D+01 -0.170352D+00
  0.905900D+00  0.140382D+00
  0.364300D+00  0.598684D+00
  0.128500D+00  0.395389D+00
   s     1 1.00
  0.905900D+00  0.100000D+01
   s     1 1.00
  0.364300D+00  0.100000D+01
   p     5 1.00
  0.187100D+02  0.140310D-01
  0.413300D+01  0.868660D-01
  0.120000D+01  0.290216D+00
  0.382700D+00  0.501008D+00
  0.120900D+00  0.343406D+00
   p     1 1.00
  0.382700D+00  0.100000D+01
   p     1 1.00
  0.120900D+00  0.100000D+01
   d     1 1.00
  0.109700D+01  0.100000D+01
   d     1 1.00
  0.318000D+00  0.100000D+01
   f     1 1.00
  0.761000D+00  0.100000D+01
  
  3  0
   s    10 1.00
  0.823600D+04  0.531000D-03
  0.123500D+04  0.410800D-02
  0.280800D+03  0.210870D-01
  0.792700D+02  0.818530D-01
  0.255900D+02  0.234817D+00
  0.899700D+01  0.434401D+00
  0.331900D+01  0.346129D+00
  0.905900D+00  0.393780D-01
  0.364300D+00 -0.898300D-02
  0.128500D+00  0.238500D-02
   s    10 1.00
  0.823600D+04 -0.113000D-03
  0.123500D+04 -0.878000D-03
  0.280800D+03 -0.454000D-02
  0.792700D+02 -0.181330D-01
  0.255900D+02 -0.557600D-01
  0.899700D+01 -0.126895D+00
  0.331900D+01 -0.170352D+00
  0.905900D+00  0.140382D+00
  0.364300D+00  0.598684D+00
  0.128500D+00  0.395389D+00
   s     1 1.00
  0.905900D+00  0.100000D+01
   s     1 1.00
  0.364300D+00  0.100000D+01
   p     5 1.00
  0.187100D+02  0.140310D-01
  0.413300D+01  0.868660D-01
  0.120000D+01  0.290216D+00
  0.382700D+00  0.501008D+00
  0.120900D+00  0.343406D+00
   p     1 1.00
  0.382700D+00  0.100000D+01
   p     1 1.00
  0.120900D+00  0.100000D+01
   d     1 1.00
  0.109700D+01  0.100000D+01
   d     1 1.00
  0.318000D+00  0.100000D+01
   f     1 1.00
  0.761000D+00  0.100000D+01
  
  4  0
   s    10 1.00
  0.823600D+04  0.531000D-03
  0.123500D+04  0.410800D-02
  0.280800D+03  0.210870D-01
  0.792700D+02  0.818530D-01
  0.255900D+02  0.234817D+00
  0.899700D+01  0.434401D+00
  0.331900D+01  0.346129D+00
  0.905900D+00  0.393780D-01
  0.364300D+00 -0.898300D-02
  0.128500D+00  0.238500D-02
   s    10 1.00
  0.823600D+04 -0.113000D-03
  0.123500D+04 -0.878000D-03
  0.280800D+03 -0.454000D-02
  0.792700D+02 -0.181330D-01
  0.255900D+02 -0.557600D-01
  0.899700D+01 -0.126895D+00
  0.331900D+01 -0.170352D+00
  0.905900D+00  0.140382D+00
  0.364300D+00  0.598684D+00
  0.128500D+00  0.395389D+00
   s     1 1.00
  0.905900D+00  0.100000D+01
   s     1 1.00
  0.364300D+00  0.100000D+01
   p     5 1.00
  0.187100D+02  0.140310D-01
  0.413300D+01  0.868660D-01
  0.120000D+01  0.290216D+00
  0.382700D+00  0.501008D+00
  0.120900D+00  0.343406D+00
   p     1 1.00
  0.382700D+00  0.100000D+01
   p     1 1.00
  0.120900D+00  0.100000D+01
   d     1 1.00
  0.109700D+01  0.100000D+01
   d     1 1.00
  0.318000D+00  0.100000D+01
   f     1 1.00
  0.761000D+00  0.100000D+01
  
  5  0
   s    10 1.00
  0.823600D+04  0.531000D-03
  0.123500D+04  0.410800D-02
  0.280800D+03  0.210870D-01
  0.792700D+02  0.818530D-01
  0.255900D+02  0.234817D+00
  0.899700D+01  0.434401D+00
  0.331900D+01  0.346129D+00
  0.905900D+00  0.393780D-01
  0.364300D+00 -0.898300D-02
  0.128500D+00  0.238500D-02
   s    10 1.00
  0.823600D+04 -0.113000D-03
  0.123500D+04 -0.878000D-03
  0.280800D+03 -0.454000D-02
  0.792700D+02 -0.181330D-01
  0.255900D+02 -0.557600D-01
  0.899700D+01 -0.126895D+00
  0.331900D+01 -0.170352D+00
  0.905900D+00  0.140382D+00
  0.364300D+00  0.598684D+00
  0.128500D+00  0.395389D+00
   s     1 1.00
  0.905900D+00  0.100000D+01
   s     1 1.00
  0.364300D+00  0.100000D+01
   p     5 1.00
  0.187100D+02  0.140310D-01
  0.413300D+01  0.868660D-01
  0.120000D+01  0.290216D+00
  0.382700D+00  0.501008D+00
  0.120900D+00  0.343406D+00
   p     1 1.00
  0.382700D+00  0.100000D+01
   p     1 1.00
  0.120900D+00  0.100000D+01
   d     1 1.00
  0.109700D+01  0.100000D+01
   d     1 1.00
  0.318000D+00  0.100000D+01
   f     1 1.00
  0.761000D+00  0.100000D+01
  
  6  0
   s    10 1.00
  0.823600D+04  0.531000D-03
  0.123500D+04  0.410800D-02
  0.280800D+03  0.210870D-01
  0.792700D+02  0.818530D-01
  0.255900D+02  0.234817D+00
  0.899700D+01  0.434401D+00
  0.331900D+01  0.346129D+00
  0.905900D+00  0.393780D-01
  0.364300D+00 -0.898300D-02
  0.128500D+00  0.238500D-02
   s    10 1.00
  0.823600D+04 -0.113000D-03
  0.123500D+04 -0.878000D-03
  0.280800D+03 -0.454000D-02
  0.792700D+02 -0.181330D-01
  0.255900D+02 -0.557600D-01
  0.899700D+01 -0.126895D+00
  0.331900D+01 -0.170352D+00
  0.905900D+00  0.140382D+00
  0.364300D+00  0.598684D+00
  0.128500D+00  0.395389D+00
   s     1 1.00
  0.905900D+00  0.100000D+01
   s     1 1.00
  0.364300D+00  0.100000D+01
   p     5 1.00
  0.187100D+02  0.140310D-01
  0.413300D+01  0.868660D-01
  0.120000D+01  0.290216D+00
  0.382700D+00  0.501008D+00
  0.120900D+00  0.343406D+00
   p     1 1.00
  0.382700D+00  0.100000D+01
   p     1 1.00
  0.120900D+00  0.100000D+01
   d     1 1.00
  0.109700D+01  0.100000D+01
   d     1 1.00
  0.318000D+00  0.100000D+01
   f     1 1.00
  0.761000D+00  0.100000D+01
  
  7  0
   s    10 1.00
  0.823600D+04  0.531000D-03
  0.123500D+04  0.410800D-02
  0.280800D+03  0.210870D-01
  0.792700D+02  0.818530D-01
  0.255900D+02  0.234817D+00
  0.899700D+01  0.434401D+00
  0.331900D+01  0.346129D+00
  0.905900D+00  0.393780D-01
  0.364300D+00 -0.898300D-02
  0.128500D+00  0.238500D-02
   s    10 1.00
  0.823600D+04 -0.113000D-03
  0.123500D+04 -0.878000D-03
  0.280800D+03 -0.454000D-02
  0.792700D+02 -0.181330D-01
  0.255900D+02 -0.557600D-01
  0.899700D+01 -0.126895D+00
  0.331900D+01 -0.170352D+00
  0.905900D+00  0.140382D+00
  0.364300D+00  0.598684D+00
  0.128500D+00  0.395389D+00
   s     1 1.00
  0.905900D+00  0.100000D+01
   s     1 1.00
  0.364300D+00  0.100000D+01
   p     5 1.00
  0.187100D+02  0.140310D-01
  0.413300D+01  0.868660D-01
  0.120000D+01  0.290216D+00
  0.382700D+00  0.501008D+00
  0.120900D+00  0.343406D+00
   p     1 1.00
  0.382700D+00  0.100000D+01
   p     1 1.00
  0.120900D+00  0.100000D+01
   d     1 1.00
  0.109700D+01  0.100000D+01
   d     1 1.00
  0.318000D+00  0.100000D+01
   f     1 1.00
  0.761000D+00  0.100000D+01
  
  8  0
   s     4 1.00
  0.130100D+02  0.196850D-01
  0.196200D+01  0.137977D+00
  0.444600D+00  0.478148D+00
  0.122000D+00  0.501240D+00
   s     1 1.00
  0.122000D+00  0.100000D+01
   p     1 1.00
  0.727000D+00  0.100000D+01
  
  9  0
   s     4 1.00
  0.130100D+02  0.196850D-01
  0.196200D+01  0.137977D+00
  0.444600D+00  0.478148D+00
  0.122000D+00  0.501240D+00
   s     1 1.00
  0.122000D+00  0.100000D+01
   p     1 1.00
  0.727000D+00  0.100000D+01
  
 10  0
   s     4 1.00
  0.130100D+02  0.196850D-01
  0.196200D+01  0.137977D+00
  0.444600D+00  0.478148D+00
  0.122000D+00  0.501240D+00
   s     1 1.00
  0.122000D+00  0.100000D+01
   p     1 1.00
  0.727000D+00  0.100000D+01
  
 11  0
   s     4 1.00
  0.130100D+02  0.196850D-01
  0.196200D+01  0.137977D+00
  0.444600D+00  0.478148D+00
  0.122000D+00  0.501240D+00
   s     1 1.00
  0.122000D+00  0.100000D+01
   p     1 1.00
  0.727000D+00  0.100000D+01
  
 12  0
   s     4 1.00
  0.130100D+02  0.196850D-01
  0.196200D+01  0.137977D+00
  0.444600D+00  0.478148D+00
  0.122000D+00  0.501240D+00
   s     1 1.00
  0.122000D+00  0.100000D+01
   p     1 1.00
  0.727000D+00  0.100000D+01
  
 13  0
   s     4 1.00
  0.130100D+02  0.196850D-01
  0.196200D+01  0.137977D+00
  0.444600D+00  0.478148D+00
  0.122000D+00  0.501240D+00
   s     1 1.00
  0.122000D+00  0.100000D+01
   p     1 1.00
  0.727000D+00  0.100000D+01
  
 14  0
   s     4 1.00
  0.130100D+02  0.196850D-01
  0.196200D+01  0.137977D+00
  0.444600D+00  0.478148D+00
  0.122000D+00  0.501240D+00
   s     1 1.00
  0.122000D+00  0.100000D+01
   p     1 1.00
  0.727000D+00  0.100000D+01
  
[MO]
 Sym= __1_A'_
 Ene=   1.00000000000000     
 Spin= Alpha
 Occup=    1.00000000000000     
                     1  9.215917321653851E-005
                     2  0.998378846773763     
                     3 -4.019283103197841E-003
                     4  1.848139570883471E-003
                     5  6.520059795997019E-003
                     6  2.718809549801900E-003
                     7  5.571388977129332E-003
                     8  0.000000000000000E+000
                     9 -7.203223342994841E-004
                    10 -7.272683915630888E-004
                    11  0.000000000000000E+000
                    12 -2.445992902297468E-003
                    13 -1.971760725765053E-003
                    14  0.000000000000000E+000
                    15 -2.538339096151316E-005
                    16  0.000000000000000E+000
                    17  0.000000000000000E+000
                    18 -1.473647253180735E-004
                    19 -6.106202182950033E-005
                    20  1.088998174672342E-004
                    21  0.000000000000000E+000
                    22  0.000000000000000E+000
                    23 -1.711998607668328E-004
                    24  4.749154248301530E-004
                    25  0.000000000000000E+000
                    26 -3.026321360735134E-006
                    27 -4.264635495780623E-005
                    28  0.000000000000000E+000
                    29  0.000000000000000E+000
                    30  3.327714036507991E-005
                    31 -9.933967882189325E-005
                    32 -2.955058202439319E-004
                    33  2.360291018414793E-005
                    34  3.117311193610135E-004
                    35 -9.332362429320890E-005
                    36 -6.220693596401027E-005
                    37 -1.884212416102820E-003
                    38  0.000000000000000E+000
                    39  3.460030908511625E-004
                    40  8.985459272530326E-005
                    41  0.000000000000000E+000
                    42 -2.020464678606961E-003
                    43  4.769066599511723E-003
                    44  0.000000000000000E+000
                    45  1.292030784292634E-005
                    46  0.000000000000000E+000
                    47  0.000000000000000E+000
                    48 -9.720265632438671E-005
                    49  1.215550676285491E-005
                    50 -1.887629770309866E-004
                    51  0.000000000000000E+000
                    52  0.000000000000000E+000
                    53 -2.365268424709408E-006
                    54  7.521397628643044E-004
                    55  0.000000000000000E+000
                    56 -3.978488150349568E-006
                    57 -7.963382982958798E-005
                    58  0.000000000000000E+000
                    59  0.000000000000000E+000
                    60  1.827600873693805E-005
                    61 -1.331944771940848E-004
                    62 -5.308107992715339E-004
                    63 -1.974459782711407E-003
                    64 -9.564225226039430E-005
                    65  2.193760323843550E-003
                    66 -3.170749457812049E-004
                    67 -3.791739935799258E-005
                    68  0.000000000000000E+000
                    69  3.691989282591234E-004
                    70  8.727386798282796E-004
                    71  0.000000000000000E+000
                    72 -1.780677005943262E-003
                    73  6.362328416322017E-004
                    74  0.000000000000000E+000
                    75 -4.724182035095529E-005
                    76  0.000000000000000E+000
                    77  0.000000000000000E+000
                    78 -4.821121574697434E-005
                    79 -2.408238911010582E-005
                    80 -1.342306526833480E-004
                    81  0.000000000000000E+000
                    82  0.000000000000000E+000
                    83  2.072219497362344E-005
                    84 -1.991088268531608E-005
                    85  0.000000000000000E+000
                    86  9.147903434721800E-006
                    87 -4.572342847671807E-005
                    88  0.000000000000000E+000
                    89  0.000000000000000E+000
                    90 -3.040325185102681E-005
                    91 -1.562728875687087E-004
                    92 -1.751746694491019E-004
                    93 -5.189183400395083E-004
                    94  1.482244461808902E-004
                    95 -4.791480642333784E-005
                    96  6.238634607857722E-005
                    97 -1.218627283311550E-004
                    98  0.000000000000000E+000
                    99  3.344981962405398E-004
                   100  3.687739323103605E-004
                   101  0.000000000000000E+000
                   102  6.175681620381186E-004
                   103 -1.672399026208841E-003
                   104  0.000000000000000E+000
                   105 -1.466205555922644E-005
                   106  0.000000000000000E+000
                   107  0.000000000000000E+000
                   108 -3.481484578969232E-005
                   109 -1.146924156754257E-005
                   110  7.494558861937577E-005
                   111  0.000000000000000E+000
                   112  0.000000000000000E+000
                   113 -1.527353391780242E-004
                   114  1.108864821175547E-004
                   115  0.000000000000000E+000
                   116 -1.754381871855594E-005
                   117 -2.157861895627682E-005
                   118  0.000000000000000E+000
                   119  0.000000000000000E+000
                   120 -8.959179928019558E-006
                   121 -4.337445646491979E-005
                   122 -2.408066904358531E-004
                   123 -6.645000665409573E-004
                   124  1.718723285634364E-004
                   125  2.849883873617508E-004
                   126 -3.703560522226919E-005
                   127 -2.133260048701253E-004
                   128  0.000000000000000E+000
                   129  2.349383880297710E-004
                   130  6.417744825254328E-004
                   131  0.000000000000000E+000
                   132  4.241859487679171E-004
                   133  1.895833181197226E-003
                   134  0.000000000000000E+000
                   135  1.525211785153749E-005
                   136  0.000000000000000E+000
                   137  0.000000000000000E+000
                   138  4.906882516181608E-005
                   139 -4.384961400948012E-006
                   140  2.034648340493998E-004
                   141  0.000000000000000E+000
                   142  0.000000000000000E+000
                   143  3.922996477118636E-004
                   144  2.072169616214391E-004
                   145  0.000000000000000E+000
                   146 -1.223271871683552E-005
                   147 -6.337174505165220E-005
                   148  0.000000000000000E+000
                   149  0.000000000000000E+000
                   150 -1.074768200363135E-005
                   151 -5.575159949474486E-005
                   152 -1.327008114489992E-004
                   153 -4.189245499214511E-004
                   154  5.568875790352697E-005
                   155  1.985618841457418E-004
                   156  8.715108513844978E-006
                   157 -7.468956782280898E-007
                   158  0.000000000000000E+000
                   159 -8.218012847555386E-006
                   160  4.711340195516575E-005
                   161  0.000000000000000E+000
                   162  7.277206444946935E-004
                   163 -3.473938193375556E-004
                   164  0.000000000000000E+000
                   165  2.081226475173555E-006
                   166  0.000000000000000E+000
                   167  0.000000000000000E+000
                   168  5.101220393355138E-006
                   169  1.315966429957565E-005
                   170  1.073927680417993E-004
                   171  0.000000000000000E+000
                   172  0.000000000000000E+000
                   173  4.838517230445600E-005
                   174  3.918607887080254E-005
                   175  0.000000000000000E+000
                   176  4.380324533855826E-006
                   177 -1.419469443856007E-005
                   178  0.000000000000000E+000
                   179  0.000000000000000E+000
                   180 -2.534165157016716E-005
                   181 -3.065934491758543E-005
                   182 -1.353716793506653E-004
                   183 -4.013189653782733E-004
                   184  3.081386248194177E-005
                   185  2.109514907538892E-004
                   186 -4.510559246440768E-005
                   187 -5.808873131842973E-005
                   188  0.000000000000000E+000
                   189  2.533660885039333E-004
                   190  1.173962330749502E-004
                   191  0.000000000000000E+000
                   192  1.274941863466220E-003
                   193 -3.085246836451394E-004
                   194  0.000000000000000E+000
                   195  7.635098751995933E-007
                   196  0.000000000000000E+000
                   197  0.000000000000000E+000
                   198 -2.373429254910776E-006
                   199  4.065486342979977E-006
                   200 -7.525393491778248E-006
                   201  0.000000000000000E+000
                   202  0.000000000000000E+000
                   203 -6.577898880653904E-005
                   204 -1.939052801496016E-004
                   205  0.000000000000000E+000
                   206 -9.261180227162060E-006
                   207 -3.785378455354449E-006
                   208  0.000000000000000E+000
                   209  0.000000000000000E+000
                   210  7.710572750835946E-006
                   211 -3.763986197391074E-006
                   212 -2.029918696073034E-005
                   213  1.104300191374317E-004
                   214  1.725446402028605E-005
                   215  2.665838608037853E-005
                   216  0.000000000000000E+000
                   217 -1.231996142861728E-003
                   218 -4.109837200749672E-004
                   219 -2.033676281212626E-004
                   220  3.754525096065054E-005
                   221  0.000000000000000E+000
                   222 -1.558826020325560E-004
                   223 -6.428456428167867E-004
                   224  2.326036318157596E-005
                   225 -5.863835026216713E-005
                   226  0.000000000000000E+000
                   227  8.946033316234098E-005
                   228 -6.338148548658312E-004
                   229 -4.413615567966249E-005
                   230 -1.563333591962081E-005
                   231  0.000000000000000E+000
                   232  4.905141837224021E-005
                   233 -4.558576769369529E-004
                   234  1.476566340580853E-005
                   235 -4.125358138479788E-006
                   236  0.000000000000000E+000
                   237  4.178140740318652E-005
                   238 -3.573692151870066E-004
                   239 -1.001955820409209E-005
                   240 -3.364332157057287E-006
                   241  0.000000000000000E+000
                   242 -7.107171321579512E-005
                   243  8.801063069754710E-005
                   244  1.995110620627355E-008
                   245  2.917667043715838E-005
                   246  0.000000000000000E+000
 Sym= __2_A'_
 Ene=   2.00000000000000     
 Spin= Alpha
 Occup=    1.00000000000000     
                     1  4.747290996204365E-005
                     2  3.298369605916429E-004
                     3 -2.920943135038985E-003
                     4 -1.189431684417612E-004
                     5 -1.332379040969361E-003
                     6  3.421849520638364E-004
                     7 -2.762538335621148E-003
                     8  0.000000000000000E+000
                     9  2.610611585383142E-005
                    10  1.083077556761178E-004
                    11  0.000000000000000E+000
                    12  4.594591112932387E-005
                    13  2.967545761036524E-004
                    14  0.000000000000000E+000
                    15 -2.648788273880493E-005
                    16  0.000000000000000E+000
                    17  0.000000000000000E+000
                    18  4.374394449916056E-005
                    19 -1.966303401254940E-005
                    20  1.150040251744637E-004
                    21  0.000000000000000E+000
                    22  0.000000000000000E+000
                    23 -1.160067677285565E-004
                    24  1.512378858977259E-004
                    25  0.000000000000000E+000
                    26  1.807351994763659E-005
                    27 -9.410862771788838E-005
                    28  0.000000000000000E+000
                    29  0.000000000000000E+000
                    30  6.568279015459182E-005
                    31 -1.466385446445703E-004
                    32  -1.00089383554536     
                    33 -9.049601120894058E-003
                    34 -2.761755061861334E-003
                    35  8.065749761566932E-003
                    36  1.912457472698142E-004
                    37  3.232327278442997E-003
                    38  0.000000000000000E+000
                    39  1.228143049868647E-004
                    40 -2.066878872404589E-004
                    41  0.000000000000000E+000
                    42  1.649495703381068E-004
                    43 -4.001835672773612E-003
                    44  0.000000000000000E+000
                    45  5.263565230832087E-004
                    46  0.000000000000000E+000
                    47  0.000000000000000E+000
                    48  1.949836102468829E-004
                    49 -3.162797425034220E-005
                    50 -5.524156801446640E-004
                    51  0.000000000000000E+000
                    52  0.000000000000000E+000
                    53  6.593268181759676E-004
                    54  4.144238139790013E-004
                    55  0.000000000000000E+000
                    56 -1.302582676301274E-005
                    57 -9.869958045927681E-005
                    58  0.000000000000000E+000
                    59  0.000000000000000E+000
                    60  2.323025896937098E-005
                    61 -3.797398538514051E-004
                    62 -1.251363135696046E-002
                    63  2.039047333412514E-003
                    64  2.360485602867719E-004
                    65 -2.699761467286958E-003
                    66 -2.731262751097538E-005
                    67 -1.263323479437991E-004
                    68  0.000000000000000E+000
                    69 -5.176326013984133E-004
                    70 -1.579496740999559E-004
                    71  0.000000000000000E+000
                    72  2.093798856274914E-003
                    73 -2.668483455694445E-004
                    74  0.000000000000000E+000
                    75 -3.451730870794894E-005
                    76  0.000000000000000E+000
                    77  0.000000000000000E+000
                    78  7.276787349722400E-006
                    79 -4.007113044877876E-006
                    80  4.284519845977494E-004
                    81  0.000000000000000E+000
                    82  0.000000000000000E+000
                    83  6.610339616023892E-004
                    84  2.633111351382633E-004
                    85  0.000000000000000E+000
                    86 -2.908671015993877E-005
                    87  5.853230743565160E-005
                    88  0.000000000000000E+000
                    89  0.000000000000000E+000
                    90 -4.534500228169578E-005
                    91 -1.478950546858206E-004
                    92 -1.534400667031710E-002
                    93  2.106174920489648E-003
                    94  3.001380251607643E-004
                    95 -3.175144757261943E-003
                    96 -1.980416643056518E-004
                    97 -2.063550994644355E-004
                    98  0.000000000000000E+000
                    99  9.295739980781164E-004
                   100 -9.221003178520459E-006
                   101  0.000000000000000E+000
                   102 -1.693676443073464E-003
                   103  1.863973782163755E-005
                   104  0.000000000000000E+000
                   105 -2.341050934931634E-005
                   106  0.000000000000000E+000
                   107  0.000000000000000E+000
                   108  8.314669214664316E-006
                   109 -3.702340250880781E-006
                   110  4.195295593088364E-004
                   111  0.000000000000000E+000
                   112  0.000000000000000E+000
                   113  3.931141237375848E-004
                   114 -2.422199370357925E-004
                   115  0.000000000000000E+000
                   116  3.132379307452348E-005
                   117  7.315886558717640E-005
                   118  0.000000000000000E+000
                   119  0.000000000000000E+000
                   120  2.293454901819977E-006
                   121 -1.339044141344997E-004
                   122  7.547168654745200E-005
                   123  6.570080736052299E-004
                   124 -2.300246048141766E-004
                   125  1.350060735064776E-004
                   126 -2.843394854815898E-006
                   127  4.036834631579085E-004
                   128  0.000000000000000E+000
                   129  7.864491649161441E-005
                   130 -6.225794817874482E-004
                   131  0.000000000000000E+000
                   132 -3.739402486125339E-004
                   133 -9.206753795393811E-004
                   134  0.000000000000000E+000
                   135 -1.851000336253631E-005
                   136  0.000000000000000E+000
                   137  0.000000000000000E+000
                   138 -3.047451077501098E-006
                   139 -4.397736472227094E-005
                   140 -1.293769866538174E-004
                   141  0.000000000000000E+000
                   142  0.000000000000000E+000
                   143 -2.572149018848914E-004
                   144  1.066747860795694E-004
                   145  0.000000000000000E+000
                   146 -9.060036091449868E-006
                   147  3.665245005708186E-005
                   148  0.000000000000000E+000
                   149  0.000000000000000E+000
                   150  4.319571824583270E-005
                   151 -3.726394261292836E-005
                   152 -1.185860911142206E-004
                   153  6.223541734556848E-004
                   154 -2.295029285070362E-004
                   155  5.054895807512179E-005
                   156  3.917392709918828E-005
                   157  4.429298635232513E-004
                   158  0.000000000000000E+000
                   159 -1.324774076868269E-004
                   160 -5.505697740182154E-004