[Molden Format]
[Atoms] AU
  N     1    7    -0.0030294400    0.0002010500   -4.3924779200        
  C     2    6    -0.0051800300   -0.0026050900   -1.7660466100        
  C     3    6     0.1892393200   -2.3243369300   -0.4031240400        
  C     4    6    -0.2018351700    2.3162094300   -0.3984861800        
  C     5    6     0.2094405600   -2.3107525400    2.1755681600        
  C     6    6    -0.2262593400    2.2971148300    2.1801345600        
  C     7    6    -0.0094707600   -0.0082037600    3.4740595500        
  H     8    1    -1.6393391300   -0.2553341400   -5.3915231300        
  H     9    1     1.6349136800    0.2578676000   -5.3882937800        
  H    10    1     0.3373821600   -4.0335149800   -1.4690379100        
  H    11    1    -0.3482352100    4.0276615300   -1.4609865500        
  H    12    1     0.3806826200   -4.0355558200    3.2212941700        
  H    13    1    -0.3992167100    4.0196799100    3.2292619900        
  H    14    1    -0.0111320800   -0.0103715100    5.5029787900        
[5D]
[7F]
[GTO]
  1  0
   s    12 1.00
  0.114200D+05  0.172695D-04
  0.171200D+04  0.134411D-03
  0.389300D+03  0.694561D-03
  0.110000D+03  0.278531D-02
  0.355700D+02  0.863457D-02
  0.125400D+02  0.199805D-01
  0.464400D+01  0.262908D-01
  0.129300D+01 -0.243845D-01
  0.511800D+00 -0.924934D-01
  0.178700D+00 -0.339683D+00
  0.246240D-01  0.345111D+00
  0.112530D-01  0.752750D+00
   s    10 1.00
  0.114200D+05  0.523000D-03
  0.171200D+04  0.404500D-02
  0.389300D+03  0.207750D-01
  0.110000D+03  0.807269D-01
  0.355700D+02  0.233074D+00
  0.125400D+02  0.433501D+00
  0.464400D+01  0.347472D+00
  0.129300D+01  0.412620D-01
  0.511800D+00 -0.850799D-02
  0.178700D+00  0.238400D-02
   s    10 1.00
  0.114200D+05 -0.115000D-03
  0.171200D+04 -0.895000D-03
  0.389300D+03 -0.462400D-02
  0.110000D+03 -0.185280D-01
  0.355700D+02 -0.573390D-01
  0.125400D+02 -0.132076D+00
  0.464400D+01 -0.172510D+00
  0.129300D+01  0.151814D+00
  0.511800D+00  0.599944D+00
  0.178700D+00  0.387462D+00
   s     1 1.00
  0.129300D+01  0.100000D+01
   s     1 1.00
  0.178700D+00  0.100000D+01
   p     5 1.00
  0.266300D+02  0.146700D-01
  0.594800D+01  0.917640D-01
  0.174200D+01  0.298683D+00
  0.555000D+00  0.498487D+00
  0.172500D+00  0.337023D+00
   p     1 1.00
  0.174200D+01  0.100000D+01
   p     1 1.00
  0.555000D+00  0.100000D+01
   d     1 1.00
  0.165400D+01  0.100000D+01
   d     1 1.00
  0.469000D+00  0.100000D+01
   f     1 1.00
  0.109300D+01  0.100000D+01
  
  2  0
   s    10 1.00
  0.823600D+04  0.531000D-03
  0.123500D+04  0.410800D-02
  0.280800D+03  0.210870D-01
  0.792700D+02  0.818530D-01
  0.255900D+02  0.234817D+00
  0.899700D+01  0.434401D+00
  0.331900D+01  0.346129D+00
  0.905900D+00  0.393780D-01
  0.364300D+00 -0.898300D-02
  0.128500D+00  0.238500D-02
   s    10 1.00
  0.823600D+04 -0.113000D-03
  0.123500D+04 -0.878000D-03
  0.280800D+03 -0.454000D-02
  0.792700D+02 -0.181330D-01
  0.255900D+02 -0.557600D-01
  0.899700D+01 -0.126895D+00
  0.331900D+01 -0.170352D+00
  0.905900D+00  0.140382D+00
  0.364300D+00  0.598684D+00
  0.128500D+00  0.395389D+00
   s     1 1.00
  0.905900D+00  0.100000D+01
   s     1 1.00
  0.364300D+00  0.100000D+01
   p     5 1.00
  0.187100D+02  0.140310D-01
  0.413300D+01  0.868660D-01
  0.120000D+01  0.290216D+00
  0.382700D+00  0.501008D+00
  0.120900D+00  0.343406D+00
   p     1 1.00
  0.382700D+00  0.100000D+01
   p     1 1.00
  0.120900D+00  0.100000D+01
   d     1 1.00
  0.109700D+01  0.100000D+01
   d     1 1.00
  0.318000D+00  0.100000D+01
   f     1 1.00
  0.761000D+00  0.100000D+01
  
  3  0
   s    10 1.00
  0.823600D+04  0.531000D-03
  0.123500D+04  0.410800D-02
  0.280800D+03  0.210870D-01
  0.792700D+02  0.818530D-01
  0.255900D+02  0.234817D+00
  0.899700D+01  0.434401D+00
  0.331900D+01  0.346129D+00
  0.905900D+00  0.393780D-01
  0.364300D+00 -0.898300D-02
  0.128500D+00  0.238500D-02
   s    10 1.00
  0.823600D+04 -0.113000D-03
  0.123500D+04 -0.878000D-03
  0.280800D+03 -0.454000D-02
  0.792700D+02 -0.181330D-01
  0.255900D+02 -0.557600D-01
  0.899700D+01 -0.126895D+00
  0.331900D+01 -0.170352D+00
  0.905900D+00  0.140382D+00
  0.364300D+00  0.598684D+00
  0.128500D+00  0.395389D+00
   s     1 1.00
  0.905900D+00  0.100000D+01
   s     1 1.00
  0.364300D+00  0.100000D+01
   p     5 1.00
  0.187100D+02  0.140310D-01
  0.413300D+01  0.868660D-01
  0.120000D+01  0.290216D+00
  0.382700D+00  0.501008D+00
  0.120900D+00  0.343406D+00
   p     1 1.00
  0.382700D+00  0.100000D+01
   p     1 1.00
  0.120900D+00  0.100000D+01
   d     1 1.00
  0.109700D+01  0.100000D+01
   d     1 1.00
  0.318000D+00  0.100000D+01
   f     1 1.00
  0.761000D+00  0.100000D+01
  
  4  0
   s    10 1.00
  0.823600D+04  0.531000D-03
  0.123500D+04  0.410800D-02
  0.280800D+03  0.210870D-01
  0.792700D+02  0.818530D-01
  0.255900D+02  0.234817D+00
  0.899700D+01  0.434401D+00
  0.331900D+01  0.346129D+00
  0.905900D+00  0.393780D-01
  0.364300D+00 -0.898300D-02
  0.128500D+00  0.238500D-02
   s    10 1.00
  0.823600D+04 -0.113000D-03
  0.123500D+04 -0.878000D-03
  0.280800D+03 -0.454000D-02
  0.792700D+02 -0.181330D-01
  0.255900D+02 -0.557600D-01
  0.899700D+01 -0.126895D+00
  0.331900D+01 -0.170352D+00
  0.905900D+00  0.140382D+00
  0.364300D+00  0.598684D+00
  0.128500D+00  0.395389D+00
   s     1 1.00
  0.905900D+00  0.100000D+01
   s     1 1.00
  0.364300D+00  0.100000D+01
   p     5 1.00
  0.187100D+02  0.140310D-01
  0.413300D+01  0.868660D-01
  0.120000D+01  0.290216D+00
  0.382700D+00  0.501008D+00
  0.120900D+00  0.343406D+00
   p     1 1.00
  0.382700D+00  0.100000D+01
   p     1 1.00
  0.120900D+00  0.100000D+01
   d     1 1.00
  0.109700D+01  0.100000D+01
   d     1 1.00
  0.318000D+00  0.100000D+01
   f     1 1.00
  0.761000D+00  0.100000D+01
  
  5  0
   s    10 1.00
  0.823600D+04  0.531000D-03
  0.123500D+04  0.410800D-02
  0.280800D+03  0.210870D-01
  0.792700D+02  0.818530D-01
  0.255900D+02  0.234817D+00
  0.899700D+01  0.434401D+00
  0.331900D+01  0.346129D+00
  0.905900D+00  0.393780D-01
  0.364300D+00 -0.898300D-02
  0.128500D+00  0.238500D-02
   s    10 1.00
  0.823600D+04 -0.113000D-03
  0.123500D+04 -0.878000D-03
  0.280800D+03 -0.454000D-02
  0.792700D+02 -0.181330D-01
  0.255900D+02 -0.557600D-01
  0.899700D+01 -0.126895D+00
  0.331900D+01 -0.170352D+00
  0.905900D+00  0.140382D+00
  0.364300D+00  0.598684D+00
  0.128500D+00  0.395389D+00
   s     1 1.00
  0.905900D+00  0.100000D+01
   s     1 1.00
  0.364300D+00  0.100000D+01
   p     5 1.00
  0.187100D+02  0.140310D-01
  0.413300D+01  0.868660D-01
  0.120000D+01  0.290216D+00
  0.382700D+00  0.501008D+00
  0.120900D+00  0.343406D+00
   p     1 1.00
  0.382700D+00  0.100000D+01
   p     1 1.00
  0.120900D+00  0.100000D+01
   d     1 1.00
  0.109700D+01  0.100000D+01
   d     1 1.00
  0.318000D+00  0.100000D+01
   f     1 1.00
  0.761000D+00  0.100000D+01
  
  6  0
   s    10 1.00
  0.823600D+04  0.531000D-03
  0.123500D+04  0.410800D-02
  0.280800D+03  0.210870D-01
  0.792700D+02  0.818530D-01
  0.255900D+02  0.234817D+00
  0.899700D+01  0.434401D+00
  0.331900D+01  0.346129D+00
  0.905900D+00  0.393780D-01
  0.364300D+00 -0.898300D-02
  0.128500D+00  0.238500D-02
   s    10 1.00
  0.823600D+04 -0.113000D-03
  0.123500D+04 -0.878000D-03
  0.280800D+03 -0.454000D-02
  0.792700D+02 -0.181330D-01
  0.255900D+02 -0.557600D-01
  0.899700D+01 -0.126895D+00
  0.331900D+01 -0.170352D+00
  0.905900D+00  0.140382D+00
  0.364300D+00  0.598684D+00
  0.128500D+00  0.395389D+00
   s     1 1.00
  0.905900D+00  0.100000D+01
   s     1 1.00
  0.364300D+00  0.100000D+01
   p     5 1.00
  0.187100D+02  0.140310D-01
  0.413300D+01  0.868660D-01
  0.120000D+01  0.290216D+00
  0.382700D+00  0.501008D+00
  0.120900D+00  0.343406D+00
   p     1 1.00
  0.382700D+00  0.100000D+01
   p     1 1.00
  0.120900D+00  0.100000D+01
   d     1 1.00
  0.109700D+01  0.100000D+01
   d     1 1.00
  0.318000D+00  0.100000D+01
   f     1 1.00
  0.761000D+00  0.100000D+01
  
  7  0
   s    10 1.00
  0.823600D+04  0.531000D-03
  0.123500D+04  0.410800D-02
  0.280800D+03  0.210870D-01
  0.792700D+02  0.818530D-01
  0.255900D+02  0.234817D+00
  0.899700D+01  0.434401D+00
  0.331900D+01  0.346129D+00
  0.905900D+00  0.393780D-01
  0.364300D+00 -0.898300D-02
  0.128500D+00  0.238500D-02
   s    10 1.00
  0.823600D+04 -0.113000D-03
  0.123500D+04 -0.878000D-03
  0.280800D+03 -0.454000D-02
  0.792700D+02 -0.181330D-01
  0.255900D+02 -0.557600D-01
  0.899700D+01 -0.126895D+00
  0.331900D+01 -0.170352D+00
  0.905900D+00  0.140382D+00
  0.364300D+00  0.598684D+00
  0.128500D+00  0.395389D+00
   s     1 1.00
  0.905900D+00  0.100000D+01
   s     1 1.00
  0.364300D+00  0.100000D+01
   p     5 1.00
  0.187100D+02  0.140310D-01
  0.413300D+01  0.868660D-01
  0.120000D+01  0.290216D+00
  0.382700D+00  0.501008D+00
  0.120900D+00  0.343406D+00
   p     1 1.00
  0.382700D+00  0.100000D+01
   p     1 1.00
  0.120900D+00  0.100000D+01
   d     1 1.00
  0.109700D+01  0.100000D+01
   d     1 1.00
  0.318000D+00  0.100000D+01
   f     1 1.00
  0.761000D+00  0.100000D+01
  
  8  0
   s     4 1.00
  0.130100D+02  0.196850D-01
  0.196200D+01  0.137977D+00
  0.444600D+00  0.478148D+00
  0.122000D+00  0.501240D+00
   s     1 1.00
  0.122000D+00  0.100000D+01
   p     1 1.00
  0.727000D+00  0.100000D+01
  
  9  0
   s     4 1.00
  0.130100D+02  0.196850D-01
  0.196200D+01  0.137977D+00
  0.444600D+00  0.478148D+00
  0.122000D+00  0.501240D+00
   s     1 1.00
  0.122000D+00  0.100000D+01
   p     1 1.00
  0.727000D+00  0.100000D+01
  
 10  0
   s     4 1.00
  0.130100D+02  0.196850D-01
  0.196200D+01  0.137977D+00
  0.444600D+00  0.478148D+00
  0.122000D+00  0.501240D+00
   s     1 1.00
  0.122000D+00  0.100000D+01
   p     1 1.00
  0.727000D+00  0.100000D+01
  
 11  0
   s     4 1.00
  0.130100D+02  0.196850D-01
  0.196200D+01  0.137977D+00
  0.444600D+00  0.478148D+00
  0.122000D+00  0.501240D+00
   s     1 1.00
  0.122000D+00  0.100000D+01
   p     1 1.00
  0.727000D+00  0.100000D+01
  
 12  0
   s     4 1.00
  0.130100D+02  0.196850D-01
  0.196200D+01  0.137977D+00
  0.444600D+00  0.478148D+00
  0.122000D+00  0.501240D+00
   s     1 1.00
  0.122000D+00  0.100000D+01
   p     1 1.00
  0.727000D+00  0.100000D+01
  
 13  0
   s     4 1.00
  0.130100D+02  0.196850D-01
  0.196200D+01  0.137977D+00
  0.444600D+00  0.478148D+00
  0.122000D+00  0.501240D+00
   s     1 1.00
  0.122000D+00  0.100000D+01
   p     1 1.00
  0.727000D+00  0.100000D+01
  
 14  0
   s     4 1.00
  0.130100D+02  0.196850D-01
  0.196200D+01  0.137977D+00
  0.444600D+00  0.478148D+00
  0.122000D+00  0.501240D+00
   s     1 1.00
  0.122000D+00  0.100000D+01
   p     1 1.00
  0.727000D+00  0.100000D+01
  
[MO]
 Sym= __1_A__
 Ene=   1.00000000000000     
 Spin= Alpha
 Occup=    1.00000000000000     
                     1  1.193685658005955E-004
                     2  0.997407963088367     
                     3  1.694056255399600E-002
                     4  2.244816254098208E-003
                     5  2.639541914305032E-004
                     6 -2.533372439820688E-006
                     7 -3.339288634496917E-006
                     8  3.103066125826883E-003
                     9  3.357966797129932E-007
                    10  4.588470507048706E-007
                    11 -4.143826435447152E-004
                    12  4.797996190576555E-007
                    13  5.907047685139145E-007
                    14 -5.864368480920862E-004
                    15  1.498371647034276E-004
                    16 -5.778126116658893E-008
                    17 -3.756564797218165E-007
                    18  1.279798981000804E-004
                    19  4.636965720318190E-005
                    20  1.332846184188371E-004
                    21 -8.640127712224811E-007
                    22  1.963158584540520E-007
                    23 -5.821883058253918E-004
                    24 -1.854443788507761E-004
                    25 -2.213279984880860E-004
                    26 -6.014301488098320E-007
                    27 -4.873556044565613E-007
                    28 -8.002562853391368E-005
                    29 -3.162879832501561E-005
                    30 -3.896249158526279E-008
                    31  1.359476597046925E-007
                    32 -2.469462402863250E-004
                    33  3.417590131561533E-003
                    34  1.506436981487725E-004
                    35 -7.381390373658612E-004
                    36  6.375611384593593E-006
                    37  8.347332054367160E-006
                    38 -7.790609703702238E-003
                    39 -2.310530925911545E-008
                    40 -1.212349051117290E-007
                    41  4.395833531115408E-005
                    42 -3.193621526341962E-006
                    43 -4.141170337052229E-006
                    44  3.899871721418044E-003
                    45  4.167421682602498E-004
                    46 -4.977556779424959E-007
                    47 -8.548081613626947E-007
                    48  9.892803603411485E-005
                    49  1.224974363025340E-005
                    50  7.601162868181684E-004
                    51 -9.177852755682643E-007
                    52 -1.699125215616751E-006
                    53  1.335744116212375E-004
                    54  3.452538121175266E-005
                    55 -5.905475014830692E-005
                    56 -9.991892520875903E-008
                    57 -1.859069234319917E-007
                    58  1.554356018215084E-005
                    59 -1.477181931020159E-006
                    60  1.720424947393603E-008
                    61 -2.263413366948202E-008
                    62 -2.150623504693295E-004
                    63 -1.958443890863760E-003
                    64  1.236706628261553E-005
                    65  8.742937594761967E-004
                    66  8.403007733661315E-005
                    67 -9.963928140609159E-004
                    68  1.420720203416126E-003
                    69 -5.216370222365316E-007
                    70  9.179697506245241E-005
                    71  8.580502243760235E-005
                    72  6.158082782380353E-005
                    73 -6.700840816947306E-004
                    74 -3.451058064673244E-004
                    75  1.042375812327133E-004
                    76  1.298545473365492E-006
                    77 -9.588234397266723E-006
                    78  4.105466311563642E-005
                    79  6.652847127321619E-006
                    80  5.173523052897627E-005
                    81 -1.048392921786030E-007
                    82 -2.838258673653270E-005
                    83  4.214906990915790E-005
                    84  1.147841911090252E-005
                    85 -6.675886107163235E-005
                    86  9.572129780875487E-007
                    87  6.167437982548842E-006
                    88  1.837047440196499E-005
                    89  2.246167085456971E-006
                    90  7.722672617233517E-006
                    91  3.092014661711807E-005
                    92 -2.150165756684215E-004
                    93 -1.958261738906976E-003
                    94  1.257550193722464E-005
                    95  8.736080204591786E-004
                    96 -8.635407978788324E-005
                    97  9.933820041089548E-004
                    98  1.422846885435007E-003
                    99  4.046132639627256E-007
                   100 -9.216317589823767E-005
                   101  8.479912248758846E-005
                   102 -6.095596244259830E-005
                   103  6.700884373086068E-004
                   104 -3.436086191223001E-004
                   105  1.042263470664452E-004
                   106 -1.513688370505762E-006
                   107  9.145571673423816E-006
                   108  4.107896131569862E-005
                   109  6.640150841081290E-006
                   110  5.128148125128620E-005
                   111  6.964385985555532E-008
                   112  2.799515404411812E-005
                   113  4.209632757499340E-005
                   114  1.141756361982126E-005
                   115 -6.663620801157535E-005
                   116 -1.168432967516439E-006
                   117 -6.572693641522178E-006
                   118  1.828182749427491E-005
                   119  2.182584072369119E-006
                   120 -7.691975629193387E-006
                   121 -3.097098776448916E-005
                   122 -1.736632299362466E-004
                   123  3.286801741672029E-005
                   124  7.524979057317097E-005
                   125  3.112338742296863E-004
                   126 -2.685664790298758E-005
                   127  7.428794198437959E-005
                   128 -9.511950538850866E-004
                   129 -1.221323090537640E-006
                   130  8.997966665660616E-006
                   131  1.722768082822794E-004
                   132 -1.878504056354231E-006
                   133  4.236577711191411E-005
                   134  5.708487980378336E-004
                   135  6.113438852697578E-006
                   136 -4.789861836924189E-007
                   137  1.069656484877928E-005
                   138 -9.721183948118934E-007
                   139  2.760797894047470E-007
                   140 -1.263645947414166E-004
                   141 -7.531678589801036E-006
                   142  7.360741131876562E-005
                   143  3.398317026523702E-005
                   144  3.834510100081269E-006
                   145 -2.145538853441857E-005
                   146  7.595483034927020E-007
                   147 -1.006471043537545E-005
                   148 -7.566737934601194E-006
                   149 -1.438344132548665E-006
                   150 -9.429217184808279E-007
                   151 -2.667441382201934E-006
                   152 -1.742637208135274E-004
                   153  3.074106038243285E-005
                   154  7.464370681719495E-005
                   155  3.150406377445358E-004
                   156  2.841036699161736E-005
                   157 -7.218142303753329E-005
                   158 -9.512642428517452E-004
                   159  9.955553922647889E-007
                   160 -9.815258720103223E-006
                   161  1.717906884932174E-004
                   162  8.785208153446678E-007
                   163 -4.290052788888189E-005
                   164  5.709161625695241E-004
                   165  6.143896587136617E-006
                   166  4.599322852304896E-007
                   167 -1.072606673414577E-005
                   168 -1.059205817873905E-006
                   169  2.799743205172525E-007
                   170 -1.264415956944874E-004
                   171  7.976314190232870E-006
                   172 -7.350494874313479E-005
                   173  3.375816059711538E-005
                   174  3.929337245286532E-006
                   175 -2.139361880081101E-005
                   176 -8.685574182992844E-007
                   177  9.983183794764795E-006
                   178 -7.589037655322634E-006
                   179 -1.465699057462558E-006
                   180  9.346793745331372E-007
                   181  2.702150344987852E-006
                   182 -1.497338905998700E-004
                   183 -4.017951234183248E-004
                   184  2.026114122441451E-005
                   185  3.100912985518104E-004
                   186  4.080781672083817E-008
                   187  1.747423912290039E-007
                   188 -6.157714478206559E-005
                   189  3.502579369702097E-008
                   190 -5.586012683469128E-007
                   191  2.355451323083753E-005
                   192  1.022080341369362E-007
                   193  1.152655732932131E-007
                   194 -1.232985977511809E-004
                   195  2.049668015005518E-005
                   196 -2.437282571390641E-008
                   197 -1.488633848133564E-008
                   198  7.235104836859276E-006
                   199  1.742149481412169E-006
                   200  2.628574230176804E-005
                   201 -6.192460446157141E-008
                   202  2.101262880009404E-007
                   203 -4.367377216771188E-007
                   204 -6.038037473267308E-007
                   205 -1.370749247166345E-005
                   206 -1.846975047993953E-008
                   207 -5.114966674801029E-008
                   208  4.704765421487536E-006
                   209  1.160570544886799E-006
                   210  1.302220448868558E-008
                   211  2.653407312596383E-008
                   212  8.032634426219312E-003
                   213 -4.199342157732504E-003
                   214  7.729521371823209E-004
                   215  1.175937189985524E-004
                   216  5.127689647446656E-004
                   217  8.032627584073405E-003
                   218 -4.199342757669345E-003
                   219 -7.737900215861981E-004
                   220 -1.186925516218405E-004
                   221  5.112497781467548E-004
                   222 -7.530532939218832E-004
                   223 -1.977916889268276E-004
                   224  4.065313322141623E-006
                   225 -4.300041916869291E-005
                   226 -5.302522113722641E-005
                   227 -7.531335680229293E-004
                   228 -1.973313219721501E-004
                   229 -3.976920664213535E-006
                   230  4.309011902230294E-005
                   231 -5.297525176076047E-005
                   232 -3.239465212157732E-004
                   233 -1.864141457866906E-004
                   234  9.455622680033177E-007
                   235 -1.921313301894973E-005
                   236 -3.419737528519618E-006
                   237 -3.240026099165423E-004
                   238 -1.865973411586160E-004
                   239 -9.460008150437707E-007
                   240  1.927833703736562E-005
                   241 -3.321831305778130E-006
                   242  1.070979577795054E-004
                   243  2.957014672681744E-005
                   244 -1.434552388113026E-008
                   245 -4.817161458032026E-008
                   246  2.008335938309538E-005
 Sym= __2_A__
 Ene=   2.00000000000000     
 Spin= Alpha
 Occup=    1.00000000000000     
                     1  1.086272975358964E-006
                     2 -6.748250924203156E-005
                     3  1.619738136377422E-003
                     4  4.552004246578781E-005
                     5  1.100458352969862E-003
                     6 -1.296415523474886E-006
                     7 -1.680322024131251E-006
                     8  1.579674175388958E-003
                     9  8.325746182838580E-008
                    10  1.027128116473232E-007
                    11 -1.003825053671558E-004
                    12 -1.233224961886851E-008
                    13 -1.309493421283027E-008
                    14  1.586742497751081E-005
                    15  4.625874241152614E-005
                    16 -6.756934525450112E-008
                    17 -9.136912572147807E-008
                    18  2.812354916123824E-006
                    19 -3.858340964182214E-006
                    20 -1.011872169391916E-004
                    21  1.752563312399074E-007
                    22  1.896121501823137E-007
                    23  1.414017225232294E-005
                    24  1.848717775480403E-005
                    25  1.911197100738506E-004
                    26  2.898788660326413E-007
                    27  5.746334920025480E-007
                    28 -5.504191112713286E-005
                    29 -1.367923823653184E-005
                    30 -3.705250657179519E-008
                    31  8.615555180377829E-008
                    32   1.00108412917663     
                    33  8.623742967668277E-003
                    34  2.495669866747174E-003
                    35 -7.875596095994416E-003
                    36  1.953334375423789E-006
                    37  2.549145589882066E-006
                    38 -2.389560765293090E-003
                    39 -7.670717375537000E-007
                    40 -9.962599315937670E-007
                    41  9.376452231581277E-004
                    42 -2.627244252596337E-006
                    43 -3.504070087849821E-006
                    44  3.217360156638596E-003
                    45  2.704959961870290E-004
                    46 -7.234988852804252E-007
                    47 -1.735212692811644E-007
                    48 -3.484555632268846E-004
                    49 -5.140586075660613E-005
                    50  2.329120554207258E-004
                    51  3.548739204812692E-007
                    52 -1.057489865562882E-006
                    53  6.915945258274104E-004
                    54  1.121440407876873E-004
                    55  2.804126286318972E-004
                    56  3.399055891598204E-007
                    57  9.568755450523138E-007
                    58 -1.465769935374360E-004
                    59 -1.916037914263463E-005
                    60 -1.215026249480329E-007
                    61  2.126171933562876E-007
                    62  1.161775753875275E-002
                    63 -1.658222946495890E-003
                    64 -2.853655994659567E-004
                    65  2.813784031300661E-003
                    66 -2.249904438712219E-005
                    67  2.827505279471069E-004
                    68 -2.025143396009863E-004
                    69 -4.451239893709307E-005
                    70  5.345573703259616E-004
                    71  1.435585624949406E-004
                    72  1.482882455446658E-004
                    73 -1.682918684989736E-003
                    74  2.072642786649298E-004
                    75 -2.909157783690359E-005
                    76  3.891401117866403E-007
                    77  7.591548575841006E-006
                    78  1.476095036200231E-005
                    79  2.076853175768258E-006
                    80  7.063396337321871E-004
                    81  3.354102356470509E-005
                    82 -3.539341118425415E-004
                    83 -6.996905807710430E-005
                    84 -1.393241784904189E-005
                    85  4.879480551289051E-005
                    86 -5.550735996737137E-007
                    87  1.289174104785647E-005
                    88 -1.094368193069313E-004
                    89 -1.692366368241988E-005
                    90  1.034637611370543E-005
                    91  4.126875346010266E-005
                    92  1.161774971165616E-002
                    93 -1.658301211898616E-003
                    94 -2.854160865177478E-004
                    95  2.813994945369215E-003
                    96  2.282862307917308E-005
                    97 -2.823201633896901E-004
                    98 -2.031104446129788E-004
                    99  4.427476574479407E-005
                   100 -5.348483056135252E-004
                   101  1.426564766505895E-004
                   102 -1.486438153842024E-004
                   103  1.682624968758826E-003
                   104  2.104643315204043E-004
                   105 -2.910598270874874E-005
                   106 -2.777086194532592E-007
                   107 -7.517957465777876E-006
                   108  1.474398609116169E-005
                   109  2.089956831162148E-006
                   110  7.076405850436399E-004
                   111 -3.569581656623920E-005
                   112  3.514911607838619E-004
                   113 -6.913499016433418E-005
                   114 -1.443202347981619E-005
                   115  4.884154739861531E-005
                   116  4.094849994793508E-007
                   117 -1.230807738114152E-005
                   118 -1.095653025138285E-004
                   119 -1.700216517734682E-005
                   120 -1.052144255784097E-005
                   121 -4.094738312819981E-005
                   122 -1.447562038277070E-004
                   123 -7.609420353775476E-004
                   124  2.263245365158928E-004
                   125 -1.760133556165991E-004
                   126 -6.798152026254870E-010
                   127 -2.444143079258725E-005
                   128 -1.581885243665792E-004
                   129  9.232376139952971E-006
                   130 -1.141520418407749E-005
                   131  5.922281361753047E-004
                   132 -2.200149394761558E-005
                   133  2.578974695253819E-004
                   134  6.275111761963863E-004
                   135 -2.580909148092075E-005
                   136 -3.893143079304301E-006
                   137  3.907027659857454E-005
                   138  1.425359303212557E-005
                   139  3.481324851133714E-006
                   140 -2.799539353350154E-004
                   141  9.289028675338697E-006
                   142 -1.818224514437083E-004
                   143 -1.631172058456106E-005
                   144 -9.605878608580435E-006
                   145 -6.501426225864904E-006
                   146  3.655358751873883E-006
                   147 -2.533983472140428E-005
                   148 -3.731949611337272E-005
                   149 -7.152085153770400E-006
                   150 -5.862925117743000E-007
                   151 -4.365389872646099E-006
                   152 -1.444756883384811E-004
                   153 -7.600120790496289E-004
                   154  2.264236324209893E-004
                   155 -1.771236812178157E-004
                   156  2.584907994391337E-007
                   157  2.476525514242075E-005
                   158 -1.581422977264286E-004
                   159 -1.021130925816869E-005
                   160  1.022340990446093E-005