[Molden Format]
[Atoms] AU
  N     1    7    -4.4519150800    0.1645695100   -0.0000004400        
  C     2    6    -1.7695092000   -0.0145096000   -0.0000001700        
  C     3    6    -0.4270927200   -0.0061402300   -2.2691546100        
  C     4    6    -0.4270931100   -0.0061391100    2.2691544900        
  C     5    6     2.1889955900   -0.0004823800   -2.2566388900        
  C     6    6     2.1889952100   -0.0004812700    2.2566392100        
  C     7    6     3.5149715000    0.0022090000    0.0000002700        
  H     8    1    -5.5282839200   -1.1224497700   -2.2847121200        
  H     9    1    -5.3130104600   -0.8650450100    1.8277692600        
  H    10    1    -1.4305344500   -0.0005073500   -4.0318143700        
  H    11    1    -1.4305351200   -0.0005053700    4.0318140800        
  H    12    1     3.1914120400   -0.0010699000   -4.0209976100        
  H    13    1     3.1914113700   -0.0010679200    4.0209980900        
  H    14    1     5.5428332300    0.0050250700    0.0000004400        
[5D]
[7F]
[GTO]
  1  0
   s    12 1.00
  0.114200D+05  0.172695D-04
  0.171200D+04  0.134411D-03
  0.389300D+03  0.694561D-03
  0.110000D+03  0.278531D-02
  0.355700D+02  0.863457D-02
  0.125400D+02  0.199805D-01
  0.464400D+01  0.262908D-01
  0.129300D+01 -0.243845D-01
  0.511800D+00 -0.924934D-01
  0.178700D+00 -0.339683D+00
  0.246240D-01  0.345111D+00
  0.112530D-01  0.752750D+00
   s    10 1.00
  0.114200D+05  0.523000D-03
  0.171200D+04  0.404500D-02
  0.389300D+03  0.207750D-01
  0.110000D+03  0.807269D-01
  0.355700D+02  0.233074D+00
  0.125400D+02  0.433501D+00
  0.464400D+01  0.347472D+00
  0.129300D+01  0.412620D-01
  0.511800D+00 -0.850799D-02
  0.178700D+00  0.238400D-02
   s    10 1.00
  0.114200D+05 -0.115000D-03
  0.171200D+04 -0.895000D-03
  0.389300D+03 -0.462400D-02
  0.110000D+03 -0.185280D-01
  0.355700D+02 -0.573390D-01
  0.125400D+02 -0.132076D+00
  0.464400D+01 -0.172510D+00
  0.129300D+01  0.151814D+00
  0.511800D+00  0.599944D+00
  0.178700D+00  0.387462D+00
   s     1 1.00
  0.129300D+01  0.100000D+01
   s     1 1.00
  0.178700D+00  0.100000D+01
   p     5 1.00
  0.266300D+02  0.146700D-01
  0.594800D+01  0.917640D-01
  0.174200D+01  0.298683D+00
  0.555000D+00  0.498487D+00
  0.172500D+00  0.337023D+00
   p     1 1.00
  0.174200D+01  0.100000D+01
   p     1 1.00
  0.555000D+00  0.100000D+01
   d     1 1.00
  0.165400D+01  0.100000D+01
   d     1 1.00
  0.469000D+00  0.100000D+01
   f     1 1.00
  0.109300D+01  0.100000D+01
  
  2  0
   s    10 1.00
  0.823600D+04  0.531000D-03
  0.123500D+04  0.410800D-02
  0.280800D+03  0.210870D-01
  0.792700D+02  0.818530D-01
  0.255900D+02  0.234817D+00
  0.899700D+01  0.434401D+00
  0.331900D+01  0.346129D+00
  0.905900D+00  0.393780D-01
  0.364300D+00 -0.898300D-02
  0.128500D+00  0.238500D-02
   s    10 1.00
  0.823600D+04 -0.113000D-03
  0.123500D+04 -0.878000D-03
  0.280800D+03 -0.454000D-02
  0.792700D+02 -0.181330D-01
  0.255900D+02 -0.557600D-01
  0.899700D+01 -0.126895D+00
  0.331900D+01 -0.170352D+00
  0.905900D+00  0.140382D+00
  0.364300D+00  0.598684D+00
  0.128500D+00  0.395389D+00
   s     1 1.00
  0.905900D+00  0.100000D+01
   s     1 1.00
  0.364300D+00  0.100000D+01
   p     5 1.00
  0.187100D+02  0.140310D-01
  0.413300D+01  0.868660D-01
  0.120000D+01  0.290216D+00
  0.382700D+00  0.501008D+00
  0.120900D+00  0.343406D+00
   p     1 1.00
  0.382700D+00  0.100000D+01
   p     1 1.00
  0.120900D+00  0.100000D+01
   d     1 1.00
  0.109700D+01  0.100000D+01
   d     1 1.00
  0.318000D+00  0.100000D+01
   f     1 1.00
  0.761000D+00  0.100000D+01
  
  3  0
   s    10 1.00
  0.823600D+04  0.531000D-03
  0.123500D+04  0.410800D-02
  0.280800D+03  0.210870D-01
  0.792700D+02  0.818530D-01
  0.255900D+02  0.234817D+00
  0.899700D+01  0.434401D+00
  0.331900D+01  0.346129D+00
  0.905900D+00  0.393780D-01
  0.364300D+00 -0.898300D-02
  0.128500D+00  0.238500D-02
   s    10 1.00
  0.823600D+04 -0.113000D-03
  0.123500D+04 -0.878000D-03
  0.280800D+03 -0.454000D-02
  0.792700D+02 -0.181330D-01
  0.255900D+02 -0.557600D-01
  0.899700D+01 -0.126895D+00
  0.331900D+01 -0.170352D+00
  0.905900D+00  0.140382D+00
  0.364300D+00  0.598684D+00
  0.128500D+00  0.395389D+00
   s     1 1.00
  0.905900D+00  0.100000D+01
   s     1 1.00
  0.364300D+00  0.100000D+01
   p     5 1.00
  0.187100D+02  0.140310D-01
  0.413300D+01  0.868660D-01
  0.120000D+01  0.290216D+00
  0.382700D+00  0.501008D+00
  0.120900D+00  0.343406D+00
   p     1 1.00
  0.382700D+00  0.100000D+01
   p     1 1.00
  0.120900D+00  0.100000D+01
   d     1 1.00
  0.109700D+01  0.100000D+01
   d     1 1.00
  0.318000D+00  0.100000D+01
   f     1 1.00
  0.761000D+00  0.100000D+01
  
  4  0
   s    10 1.00
  0.823600D+04  0.531000D-03
  0.123500D+04  0.410800D-02
  0.280800D+03  0.210870D-01
  0.792700D+02  0.818530D-01
  0.255900D+02  0.234817D+00
  0.899700D+01  0.434401D+00
  0.331900D+01  0.346129D+00
  0.905900D+00  0.393780D-01
  0.364300D+00 -0.898300D-02
  0.128500D+00  0.238500D-02
   s    10 1.00
  0.823600D+04 -0.113000D-03
  0.123500D+04 -0.878000D-03
  0.280800D+03 -0.454000D-02
  0.792700D+02 -0.181330D-01
  0.255900D+02 -0.557600D-01
  0.899700D+01 -0.126895D+00
  0.331900D+01 -0.170352D+00
  0.905900D+00  0.140382D+00
  0.364300D+00  0.598684D+00
  0.128500D+00  0.395389D+00
   s     1 1.00
  0.905900D+00  0.100000D+01
   s     1 1.00
  0.364300D+00  0.100000D+01
   p     5 1.00
  0.187100D+02  0.140310D-01
  0.413300D+01  0.868660D-01
  0.120000D+01  0.290216D+00
  0.382700D+00  0.501008D+00
  0.120900D+00  0.343406D+00
   p     1 1.00
  0.382700D+00  0.100000D+01
   p     1 1.00
  0.120900D+00  0.100000D+01
   d     1 1.00
  0.109700D+01  0.100000D+01
   d     1 1.00
  0.318000D+00  0.100000D+01
   f     1 1.00
  0.761000D+00  0.100000D+01
  
  5  0
   s    10 1.00
  0.823600D+04  0.531000D-03
  0.123500D+04  0.410800D-02
  0.280800D+03  0.210870D-01
  0.792700D+02  0.818530D-01
  0.255900D+02  0.234817D+00
  0.899700D+01  0.434401D+00
  0.331900D+01  0.346129D+00
  0.905900D+00  0.393780D-01
  0.364300D+00 -0.898300D-02
  0.128500D+00  0.238500D-02
   s    10 1.00
  0.823600D+04 -0.113000D-03
  0.123500D+04 -0.878000D-03
  0.280800D+03 -0.454000D-02
  0.792700D+02 -0.181330D-01
  0.255900D+02 -0.557600D-01
  0.899700D+01 -0.126895D+00
  0.331900D+01 -0.170352D+00
  0.905900D+00  0.140382D+00
  0.364300D+00  0.598684D+00
  0.128500D+00  0.395389D+00
   s     1 1.00
  0.905900D+00  0.100000D+01
   s     1 1.00
  0.364300D+00  0.100000D+01
   p     5 1.00
  0.187100D+02  0.140310D-01
  0.413300D+01  0.868660D-01
  0.120000D+01  0.290216D+00
  0.382700D+00  0.501008D+00
  0.120900D+00  0.343406D+00
   p     1 1.00
  0.382700D+00  0.100000D+01
   p     1 1.00
  0.120900D+00  0.100000D+01
   d     1 1.00
  0.109700D+01  0.100000D+01
   d     1 1.00
  0.318000D+00  0.100000D+01
   f     1 1.00
  0.761000D+00  0.100000D+01
  
  6  0
   s    10 1.00
  0.823600D+04  0.531000D-03
  0.123500D+04  0.410800D-02
  0.280800D+03  0.210870D-01
  0.792700D+02  0.818530D-01
  0.255900D+02  0.234817D+00
  0.899700D+01  0.434401D+00
  0.331900D+01  0.346129D+00
  0.905900D+00  0.393780D-01
  0.364300D+00 -0.898300D-02
  0.128500D+00  0.238500D-02
   s    10 1.00
  0.823600D+04 -0.113000D-03
  0.123500D+04 -0.878000D-03
  0.280800D+03 -0.454000D-02
  0.792700D+02 -0.181330D-01
  0.255900D+02 -0.557600D-01
  0.899700D+01 -0.126895D+00
  0.331900D+01 -0.170352D+00
  0.905900D+00  0.140382D+00
  0.364300D+00  0.598684D+00
  0.128500D+00  0.395389D+00
   s     1 1.00
  0.905900D+00  0.100000D+01
   s     1 1.00
  0.364300D+00  0.100000D+01
   p     5 1.00
  0.187100D+02  0.140310D-01
  0.413300D+01  0.868660D-01
  0.120000D+01  0.290216D+00
  0.382700D+00  0.501008D+00
  0.120900D+00  0.343406D+00
   p     1 1.00
  0.382700D+00  0.100000D+01
   p     1 1.00
  0.120900D+00  0.100000D+01
   d     1 1.00
  0.109700D+01  0.100000D+01
   d     1 1.00
  0.318000D+00  0.100000D+01
   f     1 1.00
  0.761000D+00  0.100000D+01
  
  7  0
   s    10 1.00
  0.823600D+04  0.531000D-03
  0.123500D+04  0.410800D-02
  0.280800D+03  0.210870D-01
  0.792700D+02  0.818530D-01
  0.255900D+02  0.234817D+00
  0.899700D+01  0.434401D+00
  0.331900D+01  0.346129D+00
  0.905900D+00  0.393780D-01
  0.364300D+00 -0.898300D-02
  0.128500D+00  0.238500D-02
   s    10 1.00
  0.823600D+04 -0.113000D-03
  0.123500D+04 -0.878000D-03
  0.280800D+03 -0.454000D-02
  0.792700D+02 -0.181330D-01
  0.255900D+02 -0.557600D-01
  0.899700D+01 -0.126895D+00
  0.331900D+01 -0.170352D+00
  0.905900D+00  0.140382D+00
  0.364300D+00  0.598684D+00
  0.128500D+00  0.395389D+00
   s     1 1.00
  0.905900D+00  0.100000D+01
   s     1 1.00
  0.364300D+00  0.100000D+01
   p     5 1.00
  0.187100D+02  0.140310D-01
  0.413300D+01  0.868660D-01
  0.120000D+01  0.290216D+00
  0.382700D+00  0.501008D+00
  0.120900D+00  0.343406D+00
   p     1 1.00
  0.382700D+00  0.100000D+01
   p     1 1.00
  0.120900D+00  0.100000D+01
   d     1 1.00
  0.109700D+01  0.100000D+01
   d     1 1.00
  0.318000D+00  0.100000D+01
   f     1 1.00
  0.761000D+00  0.100000D+01
  
  8  0
   s     4 1.00
  0.130100D+02  0.196850D-01
  0.196200D+01  0.137977D+00
  0.444600D+00  0.478148D+00
  0.122000D+00  0.501240D+00
   s     1 1.00
  0.122000D+00  0.100000D+01
   p     1 1.00
  0.727000D+00  0.100000D+01
  
  9  0
   s     4 1.00
  0.130100D+02  0.196850D-01
  0.196200D+01  0.137977D+00
  0.444600D+00  0.478148D+00
  0.122000D+00  0.501240D+00
   s     1 1.00
  0.122000D+00  0.100000D+01
   p     1 1.00
  0.727000D+00  0.100000D+01
  
 10  0
   s     4 1.00
  0.130100D+02  0.196850D-01
  0.196200D+01  0.137977D+00
  0.444600D+00  0.478148D+00
  0.122000D+00  0.501240D+00
   s     1 1.00
  0.122000D+00  0.100000D+01
   p     1 1.00
  0.727000D+00  0.100000D+01
  
 11  0
   s     4 1.00
  0.130100D+02  0.196850D-01
  0.196200D+01  0.137977D+00
  0.444600D+00  0.478148D+00
  0.122000D+00  0.501240D+00
   s     1 1.00
  0.122000D+00  0.100000D+01
   p     1 1.00
  0.727000D+00  0.100000D+01
  
 12  0
   s     4 1.00
  0.130100D+02  0.196850D-01
  0.196200D+01  0.137977D+00
  0.444600D+00  0.478148D+00
  0.122000D+00  0.501240D+00
   s     1 1.00
  0.122000D+00  0.100000D+01
   p     1 1.00
  0.727000D+00  0.100000D+01
  
 13  0
   s     4 1.00
  0.130100D+02  0.196850D-01
  0.196200D+01  0.137977D+00
  0.444600D+00  0.478148D+00
  0.122000D+00  0.501240D+00
   s     1 1.00
  0.122000D+00  0.100000D+01
   p     1 1.00
  0.727000D+00  0.100000D+01
  
 14  0
   s     4 1.00
  0.130100D+02  0.196850D-01
  0.196200D+01  0.137977D+00
  0.444600D+00  0.478148D+00
  0.122000D+00  0.501240D+00
   s     1 1.00
  0.122000D+00  0.100000D+01
   p     1 1.00
  0.727000D+00  0.100000D+01
  
[MO]
 Sym= __1_a__
 Ene=  0.000000000000000E+000
 Spin= Alpha
 Occup=    2.00000000000000     
                     1  1.682635144305590E-004
                     2  0.998585242715270     
                     3 -1.938787691045550E-004
                     4  1.337090499812210E-003
                     5  6.609666387507030E-003
                     6  6.908966401548760E-003
                     7 -3.592859647154210E-003
                     8  2.332177157551280E-003
                     9 -1.060460786157370E-003
                    10  3.544978568941830E-004
                    11 -4.140578909557850E-004
                    12 -2.624490411959460E-003
                    13  2.464045867058840E-003
                    14 -1.651789983885500E-003
                    15 -8.688924514209650E-005
                    16 -2.699092216949590E-005
                    17  2.949569848383350E-005
                    18  6.994802569408341E-005
                    19  2.153706081701670E-006
                    20 -2.544056746283509E-004
                    21  2.696987730762880E-004
                    22  1.283198547354010E-005
                    23  8.788124107933680E-005
                    24 -3.613851706895040E-004
                    25  1.306995595485444E-005
                    26 -8.197192788404596E-005
                    27  2.075892931164825E-006
                    28  8.670503820530221E-006
                    29 -4.956810730761960E-006
                    30 -5.642885204762347E-005
                    31 -4.923566552626588E-005
                    32 -3.417168859678970E-004
                    33  4.258045996848850E-004
                    34  2.888889337150140E-004
                    35 -2.791010875803610E-004
                    36 -3.053163585245120E-003
                    37 -1.320454350468820E-004
                    38 -1.228267206124190E-004
                    39 -3.440252576383770E-005
                    40 -9.758627854043039E-007
                    41  4.565135365676400E-004
                    42  5.635299462303230E-003
                    43  5.379131411732980E-004
                    44 -1.429056731709910E-003
                    45 -1.705615077834311E-004
                    46  6.034571307831951E-008
                    47  7.008151269426890E-006
                    48  1.508119225543084E-004
                    49  2.276869706696830E-005
                    50  1.807615903299852E-004
                    51  4.538710173782630E-004
                    52 -3.892545772396050E-005
                    53  3.451690477601660E-005
                    54 -2.784548211250250E-004
                    55 -2.448939074586932E-006
                    56 -5.624498505812348E-005
                    57  3.272393954570547E-006
                    58  1.406890694595116E-005
                    59 -2.489763819164640E-006
                    60 -3.440439045826747E-005
                    61  3.431407256019015E-005
                    62 -5.594354843131260E-004
                    63 -2.215853825190070E-003
                    64 -3.037474440974300E-005
                    65  1.968803575790250E-003
                    66  2.740295382225600E-004
                    67 -1.631767408494720E-004
                    68 -4.661769496137680E-004
                    69  5.944633870436791E-004
                    70  1.809607566149170E-005
                    71  4.401744471191690E-004
                    72  1.540926259752080E-004
                    73 -1.891244614803570E-004
                    74 -1.533201824040920E-003
                    75 -4.506558174523688E-005
                    76 -2.868660523300080E-005
                    77  8.798334397394291E-006
                    78  7.058385142215160E-005
                    79 -6.157855024028500E-006
                    80  2.144847390128538E-004
                    81  1.825869678572930E-006
                    82 -3.027005485113460E-005
                    83  3.109304002656960E-006
                    84  4.887082777660340E-005
                    85 -1.153053761563662E-005
                    86 -1.092658576537311E-004
                    87  1.239846658692075E-005
                    88  8.931029441801740E-007
                    89  1.411464807116370E-005
                    90 -6.334765271759898E-005
                    91 -7.953775600083854E-006
                    92 -2.817590062372420E-004
                    93 -1.298293993608050E-003
                    94  1.641818666104100E-004
                    95  3.122299835220500E-004
                    96  3.770334297873390E-004
                    97 -2.558668506232680E-004
                    98  3.834442401066720E-004
                    99  3.767994265140360E-004
                   100  1.113005259578750E-004
                   101  1.505519396810900E-004
                   102 -1.307960830930450E-003
                   103 -2.978314223068290E-004
                   104  8.910503829277030E-004
                   105 -4.971898161103445E-005
                   106 -4.277697587935940E-006
                   107 -1.393026750004730E-005
                   108  4.728319322597180E-005
                   109 -1.470321179842690E-005
                   110 -2.862097223890322E-005
                   111 -3.502484877102110E-005
                   112  2.005556562929820E-005
                   113 -9.196473056470499E-005
                   114  5.446923024349000E-005
                   115  2.308316973728284E-006
                   116 -2.687322659271289E-005
                   117  1.367656946247021E-005
                   118  1.223352976915242E-005
                   119 -6.647328204465970E-006
                   120 -3.850712928879849E-005
                   121 -1.008247941076787E-005
                   122 -2.823757244095230E-004
                   123 -7.091521146388540E-004
                   124  1.031929315925180E-004
                   125  7.191514669987510E-004
                   126 -3.890890281492470E-004
                   127 -1.120809989701570E-004
                   128 -1.835549068124970E-005
                   129  4.040395179823140E-004
                   130 -1.631118704407830E-005
                   131  1.779319947997980E-004
                   132  1.680378413542880E-003
                   133  9.596145264619339E-005
                   134  3.099177261670170E-005
                   135  2.254036458422387E-005
                   136  7.058865503101471E-007
                   137 -5.386064664974750E-006
                   138 -1.085202838541680E-005
                   139  5.540610312366680E-006
                   140  1.449604545452780E-004
                   141  2.121746592184790E-004
                   142  4.802241687622860E-006
                   143 -3.000626082490020E-004
                   144 -3.244127585759790E-007
                   145 -2.080170224432682E-005
                   146 -2.291625557784062E-005
                   147  8.702051667070231E-007
                   148 -6.834714753227340E-006
                   149 -1.534665575177970E-006
                   150 -6.437466896940432E-005
                   151 -2.379762062656925E-006
                   152 -2.160550018822420E-004
                   153 -5.014717310464650E-004
                   154  2.671958375099500E-005
                   155  6.258723009269170E-004
                   156 -3.444536198819800E-004
                   157 -1.500779575101340E-004
                   158 -8.492747291760069E-006
                   159  8.541998230735090E-005
                   160 -3.969241952158330E-005
                   161 -5.447233521592620E-006
                   162  1.797020120583940E-004
                   163  1.544445371247830E-004
                   164  5.423507406735510E-004
                   165 -5.902285293224716E-007
                   166  4.112966275769970E-006
                   167  5.975286283626170E-006
                   168  8.111877616499600E-006
                   169  1.250130131173900E-005
                   170  2.163308450263600E-005
                   171 -7.396020233087269E-005
                   172 -1.051216132038640E-005
                   173 -1.208347415616898E-004
                   174 -4.006545171538060E-006
                   175 -3.408199905565300E-006
                   176 -1.016184506680731E-005
                   177  3.107478040924226E-006
                   178 -8.860247514886160E-006
                   179  1.028194667645800E-006
                   180 -2.757934061282616E-005
                   181 -6.281469294750845E-006
                   182 -1.636989501563940E-004
                   183 -5.071788173376630E-004
                   184  4.483487115334740E-005
                   185  2.411349415611080E-004
                   186 -2.812604354053350E-005
                   187 -1.295351721784210E-004
                   188 -2.768496470122850E-005
                   189  1.168389245626190E-004
                   190  1.058498235078740E-005
                   191  1.350910393447870E-004
                   192 -4.021597193795730E-004
                   193 -7.118907768599259E-005
                   194  8.297814078815220E-004
                   195 -7.068913442346576E-006
                   196  3.338832479674160E-006
                   197  1.554503939655350E-006
                   198  3.017336142623680E-006
                   199  9.948721519304020E-007
                   200 -1.142611250265286E-004
                   201 -1.226439499413130E-004
                   202 -9.008715719903590E-006
                   203  4.398363012025480E-005
                   204  1.662029792713450E-005
                   205  3.633753070714107E-006
                   206  7.097217618234248E-006
                   207  9.967683789418115E-007
                   208  9.110464038193959E-006
                   209  9.504904399257780E-007
                   210 -6.464700777344096E-006
                   211 -3.348823107593378E-006
                   212 -1.453031865831610E-005
                   213 -1.548615366355410E-004
                   214  5.835229135122320E-005
                   215  1.496776641550620E-004
                   216  8.346026067049500E-005
                   217  4.340854076700860E-004
                   218 -9.691799125942050E-004
                   219  1.156959657442840E-004
                   220  2.051027913473210E-004
                   221 -2.739967980793090E-004
                   222 -3.401036044190370E-004
                   223 -6.393964634511960E-004
                   224 -7.303893828340970E-005
                   225  5.413212668118580E-006
                   226  3.582895815239390E-005
                   227 -2.351724620163450E-004
                   228 -6.218338930655850E-004
                   229 -3.819598993211350E-005
                   230  8.854344440086050E-006
                   231 -3.973512126040740E-005
                   232 -1.810913664367720E-005
                   233 -5.743624734022390E-004
                   234 -6.203968555978100E-006
                   235 -1.298319907177600E-006
                   236  1.915573575910400E-007
                   237 -8.331746423046790E-005
                   238 -4.221839275212420E-004
                   239  2.653342987654270E-006
                   240 -3.922468771242600E-006
                   241  9.684410062241471E-006
                   242 -7.783854064893880E-006
                   243  1.155036447200400E-004
                   244  3.143482029855550E-005
                   245  2.439246313703070E-007
                   246 -3.069371394923900E-008
 Sym= __2_a__
 Ene=  0.000000000000000E+000
 Spin= Alpha
 Occup=    2.00000000000000     
                     1 -3.826618703625960E-005
                     2 -1.571400252642160E-004
                     3  2.179902243500340E-003
                     4  2.997811026034920E-005
                     5  1.153478077882510E-003
                     6  2.258206387770530E-003
                     7 -1.550335386490730E-004
                     8 -1.710366389426390E-004
                     9 -1.278515874084360E-004
                    10  8.852951652477870E-005
                    11 -2.525587773851850E-005
                    12 -3.375041451186040E-005
                    13  5.096141073867600E-005
                    14  2.965854890502010E-005
                    15 -7.235243617008397E-005
                    16  1.916364680194070E-006
                    17  4.335167746769040E-006
                    18  3.928251613938600E-005
                    19 -1.226272126846500E-005
                    20  1.124735757240361E-004
                    21  1.095407629455660E-005
                    22 -1.211392967911980E-005
                    23  1.027107170676772E-004
                    24 -1.361501060005250E-005
                    25 -4.240347929390084E-006
                    26  1.365182897417645E-004
                    27 -4.038790535894843E-005
                    28 -3.288790512910380E-006
                    29  1.640355326539640E-006
                    30  1.167833945243973E-004
                    31  2.805063838099105E-005
                    32   1.00088011052409     
                    33  8.987809248040480E-003
                    34  2.805458485420000E-003
                    35 -8.300880176684660E-003
                    36 -2.453741962824870E-003
                    37  4.356127214102390E-004
                    38 -4.111763377391700E-005
                    39  5.662228361730650E-004
                    40 -2.516850442704410E-004
                    41  3.821996719118190E-005
                    42  3.412544632420670E-003
                    43 -1.205527098939860E-004
                    44  5.977371071326180E-005
                    45  2.744917116319741E-004
                    46 -4.143127134756070E-006
                    47 -5.402027951586760E-006
                    48  4.216307347341320E-004
                    49 -2.772607228206230E-005
                    50 -1.065468433454974E-003
                    51  2.944880369838070E-005
                    52  5.290230606241430E-006
                    53 -9.590161221558860E-005
                    54  5.209555946963520E-005
                    55 -1.757451506282293E-007
                    56  3.085796402092666E-004
                    57 -1.004125905043400E-005
                    58  4.825317210990760E-007
                    59 -4.226439281716430E-006
                    60  1.050824381839314E-004
                    61  1.287846020344080E-005
                    62  1.505735654678460E-002
                    63 -1.915332700709990E-003
                    64 -3.097206815908500E-004
                    65  3.169601394006440E-003
                    66 -5.189586089679110E-005
                    67  1.404595101415370E-005
                    68  1.751327187113950E-004
                    69 -3.426769872492870E-006
                    70 -8.449650420939840E-007
                    71  6.117567822456369E-004
                    72  1.228955393208110E-004
                    73 -1.853284536485000E-005
                    74 -1.810857559210950E-003
                    75 -1.316490753547991E-005
                    76  1.594916304841170E-005
                    77  4.341325139344960E-006
                    78 -2.991622504062620E-005
                    79 -2.236216909003580E-006
                    80 -3.764077440152666E-004
                    81 -4.275000287671270E-004
                    82 -7.699955124670889E-006
                    83  7.376333101857200E-004
                    84 -3.904234232736030E-006
                    85  4.844048794828761E-005
                    86  1.178379345912150E-004
                    87 -1.443949943973196E-006
                    88 -1.697871974622026E-005
                    89 -6.547688918480060E-006
                    90 -3.058840136477136E-005
                    91  3.891129759468638E-006
                    92  1.586412384952450E-002
                    93 -1.912951929515270E-003
                    94 -3.035023445530600E-004
                    95  3.147580584462320E-003
                    96 -6.437870625661360E-005
                    97 -4.293775516562090E-006
                    98 -1.668111629020070E-004
                    99  1.870343138849640E-005
                   100 -2.520539911257760E-006
                   101 -5.877704000585480E-004
                   102  1.612684967980260E-004
                   103 -2.015589888871070E-005
                   104  1.827342488093850E-003
                   105 -1.418480351506467E-005
                   106 -1.830993935049860E-005
                   107 -4.905377079888020E-006
                   108 -3.117131758023480E-005
                   109 -2.483245849976590E-006
                   110 -3.850602153271858E-004
                   111  4.268544115617670E-004
                   112  9.784230439079500E-006
                   113  7.460815606604340E-004
                   114 -1.649816521363980E-006
                   115 -4.687021021303801E-005
                   116  1.153614680946029E-004
                   117 -5.217457392559554E-007
                   118  1.640319406928662E-005
                   119  6.004123476725940E-006
                   120 -3.105576243101728E-005
                   121  3.232831714596352E-006
                   122 -3.921398118491420E-005
                   123 -6.585162341573590E-004
                   124  2.470025170310330E-004
                   125 -2.818472339124500E-004
                   126 -2.686154314262310E-004
                   127  1.637257882981530E-007
                   128 -2.881151134462720E-005
                   129  5.953463164567910E-004
                   130  6.800504610896060E-007
                   131  5.442085464101820E-006
                   132  5.877398026827520E-004
                   133  1.335423637280870E-005
                   134  3.013278718754030E-004
                   135 -9.910303540946148E-007
                   136  4.208645134574760E-005
                   137  1.957267040746830E-007
                   138 -3.147056056660500E-005
                   139  2.758245561261600E-007
                   140  1.777645157212639E-004
                   141 -2.187521874443850E-004
                   142  7.288621784734000E-007
                   143 -2.557077736642380E-004
                   144 -3.211124388366150E-006
                   145 -2.088053494563514E-005
                   146  1.863151300887160E-005
                   147 -1.790504869625912E-007
                   148 -1.750762436162602E-005
                   149 -1.841019019230900E-006
                   150 -2.692601318226094E-005
                   151 -8.702714473048723E-007
                   152  1.516522389433900E-005
                   153 -6.683356195863300E-004
                   154  2.487537244133850E-004
                   155 -2.850114922404510E-004
                   156 -2.629920972473610E-004
                   157 -1.508912367998230E-005
                   158  2.983255951311200E-005
                   159  6.080900072153740E-004
                   160  3.092478194775390E-007