===========================================================
===                   runc                              ===
===           version 7.0.2 , April 2021              ===
===          requires COLUMBUS version Col_7.0.2        ===
===                                                     ===
===   written by: Thomas Mueller                        ===
===   gradient ext. by: Michal Dallos                   ===
===               University of Vienna                  ===
===   maintained by: Felix Plasser                      ===
===               Loughborough University               ===
===========================================================


coremem. (seq.): 200000 MB,  coremem. (par.): 19000 MB
Vdisk size: 0 DP
Reading job control file control.run ... 
 ****** This is an 2c-QDPT MRCISD calculation ****** 
 model space size=4:0:4
SMOLCAS=/home-4/yshen57@jhu.edu/Software/Chemistry/Columbus-7.0.2_OpenMolcas-18.09-col/OpenMolcas/build
Found serial Molcas Installation at /home-4/yshen57@jhu.edu/Software/Chemistry/Columbus-7.0.2_OpenMolcas-18.09-col/OpenMolcas/build
  done 
INFO: keywords nadcoupl and seward are supported for DCI mode only!
seward specified, using also alaska
Creating various directories ... 
 done 
SMOLCAS=/home-4/yshen57@jhu.edu/Software/Chemistry/Columbus-7.0.2_OpenMolcas-18.09-col/OpenMolcas/build
PMOLCAS=
Checking for illegal keywords and keyword combinations ... done 

 Nonadiabatic coupling term calculation type: DCI+DCSF
  States involved in calcualtion:
   DRT1,state1;  DRT1,state2
   DRT1,state1;  DRT1,state3
   DRT1,state1;  DRT1,state4
   DRT1,state2;  DRT1,state3
   DRT1,state2;  DRT1,state4
   DRT1,state3;  DRT1,state4
   DRT2,state1;  DRT2,state2
   DRT2,state1;  DRT2,state3
   DRT2,state1;  DRT2,state4
   DRT2,state2;  DRT2,state3
   DRT2,state2;  DRT2,state4
   DRT2,state3;  DRT2,state4

Additional gradients computed:
   DRT1,state1
   DRT1,state2
   DRT1,state3
   DRT1,state4
   DRT2,state1
   DRT2,state2
   DRT2,state3
   DRT2,state4

Checking for complete set of input files ... 
mcscf calculation without preceeding scf calculation 
will use 
 /scratch/users/yshen57@jhu.edu/Molcas/slow/0.8/mrci/mocoef as starting MOs 
Performing coupled non-rel. SO-CI calculation, nrroots: 4 0 4
starting cidrt.x   -m 200000 < cidrtin > temp at Sat May 14 19:51:10 EDT 2022

 -------------------- cidrt.x ------------------------
 spatial symmetry:  
 total number of configurations          0
 number of reference configurations     0
 --------------------------------------------------- 
 Preparing SO cidrtin files for 1 symmetries
cat ../cidrtin | sed -e 's/^.*input the molecular spatial symmetry/1 \/ molsym/' > cidrtin.so_A 
calling cidrt.x -m 200000 < cidrtin.so_A > cidrtls.soci_A ...
Checking the DRTs for consistency ...
calling reindex.x -i 1 -m 200000  ...
done

 ++++++++++++++++++ input file generation +++++++++++++ 
 runc start: Sat May 14 19:51:36 EDT 2022
 
  runc start: Sat May 14 19:51:36 EDT 2022
 
 starting unik.gets.x > unikls at Sat May 14 19:51:36 EDT 2022

 -------------------- unik.gets.x ------------------------
 --------------------------------------------------- 
 ++++++++++++++++++++ ao integral calculation ++++++++++++++++
starting pymolcas molcas.input.seward > molcas.output.seward  at Sat May 14 19:51:36 EDT 2022

Generating link ln -s ./molcas.OrdInt ORDINT 
 -------------------- seward ------------------------
      Basis set label: N.ANILINE.........
      Basis set label: C.ANILINE.........
      Basis set label: H.ANILINE.........
  Nuclear Coordinates in                   atomic units                                   Angstrom 
     Center  Label                x              y              z                     x              y              z
        1      N1              -4.418942       0.097101      -0.017216             -2.338403       0.051384      -0.009110
        2      C2              -1.773349       0.001858       0.005333             -0.938416       0.000983       0.002822
        3      C3              -0.427081       0.010820      -2.266666             -0.226002       0.005726      -1.199468
        4      C4              -0.424840       0.000163       2.271671             -0.224816       0.000086       1.202117
        5      C5               2.186864       0.005836      -2.254105              1.157238       0.003088      -1.192821
        6      C6               2.190756      -0.003442       2.255739              1.159298      -0.001821       1.193686
        7      C7               3.516746      -0.002978       0.000310              1.860982      -0.001576       0.000164
        8      H8              -5.090798      -0.450850      -1.255699             -2.693934      -0.238580      -0.664487
        9      H9              -5.202902      -0.498379       1.623639             -2.753257      -0.263731       0.859193
       10      H10             -1.430917       0.030016      -4.029050             -0.757209       0.015884      -2.132081
       11      H11             -1.425516       0.010026       4.036258             -0.754351       0.005305       2.135896
       12      H12              3.187415       0.007636      -4.019614              1.686707       0.004041      -2.127088
       13      H13              3.192685      -0.008837       4.020359              1.689496      -0.004676       2.127482
       14      H14              5.544440      -0.007143      -0.001523              2.933991      -0.003780      -0.000806
 
            Nuclear Potential Energy            273.97551973 au
 --------------------------------------------------- 
  >>>>>>>>>>>>> info: preparing drt no 1 out of 1 <<<<<<
starting mcdrt.x -m 200000 < mcdrtin > mcdrtls at Sat May 14 19:57:17 EDT 2022

 -------------------- mcdrt.x ------------------------
  Spin multiplicity: singlet 
  Spatial symmetry (#): 1
  Number of Configurations:       1275 
  --------------------------------------------------- 
 starting mcuft.x at Sat May 14 19:57:17 EDT 2022

 -------------------- mcuft.x ------------------------
 --------------------------------------------------- 
 ++++++++++++++++++++ MCSCF calculation +++++++++++++++
info: taking mocoef file from /scratch/users/yshen57@jhu.edu/Molcas/slow/0.8/mrci/mocoef
adding flag 30 to mcscfin
Writing mcdenin files for mcscf.x for 1 DRTs
adding flag 26 to mcscfin
starting mcscf.x -m 200000 at Sat May 14 19:57:17 EDT 2022

 -------------------- mcscf.x ------------------------
 Individual total energies for all states: 
    DRT #1 state # 1 wt 0.250 total energy=     -285.848156871, rel. (eV)=   0.000000
    DRT #1 state # 2 wt 0.250 total energy=     -285.633538312, rel. (eV)=   5.840071
    DRT #1 state # 3 wt 0.250 total energy=     -285.617704126, rel. (eV)=   6.270941
    DRT #1 state # 4 wt 0.250 total energy=     -285.578872301, rel. (eV)=   7.327609
  --------------------------------------------------- 
 starting mcpc.x -m 200000 < mcpcin > mcpcls at Sat May 14 20:00:28 EDT 2022

 -------------------- mcpc.x ------------------------
 --------------------------------------------------- 
 starting mcpc.x -m 200000 < mcpcin > mcpcls at Sat May 14 20:00:28 EDT 2022

 -------------------- mcpc.x ------------------------
 --------------------------------------------------- 
 starting mcpc.x -m 200000 < mcpcin > mcpcls at Sat May 14 20:00:28 EDT 2022

 -------------------- mcpc.x ------------------------
 --------------------------------------------------- 
 starting mcpc.x -m 200000 < mcpcin > mcpcls at Sat May 14 20:00:28 EDT 2022

 -------------------- mcpc.x ------------------------
 --------------------------------------------------- 
 
========= state properties for state-averaged MCSCF =========
mcscf.drt1.st01.sp
starting exptvl.x -m 200000   at Sat May 14 20:00:29 EDT 2022

 -------------------- exptvl.x ------------------------
  === dipole moment === 
                     X               Y               Z   
   orign x       0.00000000      0.00000000      0.00000000
   orign y       0.00000000      0.00000000      0.00000000
   orign z       0.00000000      0.00000000      0.00000000
   nuclear      -0.54361444     -0.16427821      0.32755097
   electronic    0.00684843     -0.22100958     -0.25728878
   total        -0.53676601     -0.38528779      0.07026219
   total Dipole moment =   1.68887928    Debye
 --------------------------------------------------- 
 mcscf.drt1.st02.sp
starting exptvl.x -m 200000   at Sat May 14 20:00:29 EDT 2022

 -------------------- exptvl.x ------------------------
  === dipole moment === 
                     X               Y               Z   
   orign x       0.00000000      0.00000000      0.00000000
   orign y       0.00000000      0.00000000      0.00000000
   orign z       0.00000000      0.00000000      0.00000000
   nuclear      -0.54361444     -0.16427821      0.32755097
   electronic    4.42351670     -0.19834549     -0.26123855
   total         3.87990226     -0.36262370      0.06631242
   total Dipole moment =   9.90614998    Debye
 --------------------------------------------------- 
 mcscf.drt1.st03.sp
starting exptvl.x -m 200000   at Sat May 14 20:00:29 EDT 2022

 -------------------- exptvl.x ------------------------
  === dipole moment === 
                     X               Y               Z   
   orign x       0.00000000      0.00000000      0.00000000
   orign y       0.00000000      0.00000000      0.00000000
   orign z       0.00000000      0.00000000      0.00000000
   nuclear      -0.54361444     -0.16427821      0.32755097
   electronic   -0.34005124     -0.17607901     -0.26111896
   total        -0.88366568     -0.34035722      0.06643201
   total Dipole moment =   2.41281645    Debye
 --------------------------------------------------- 
 mcscf.drt1.st04.sp
starting exptvl.x -m 200000   at Sat May 14 20:00:30 EDT 2022

 -------------------- exptvl.x ------------------------
  === dipole moment === 
                     X               Y               Z   
   orign x       0.00000000      0.00000000      0.00000000
   orign y       0.00000000      0.00000000      0.00000000
   orign z       0.00000000      0.00000000      0.00000000
   nuclear      -0.54361444     -0.16427821      0.32755097
   electronic    5.39671886     -0.25428328     -0.27421081
   total         4.85310442     -0.41856149      0.05334016
   total Dipole moment =  12.38190827    Debye
 --------------------------------------------------- 
  using the MCSCF MOs ... 
starting cidrt.x  -m 200000 < cidrtin.1 > cidrtls at Sat May 14 20:00:30 EDT 2022

 -------------------- cidrt.x ------------------------
 total number of orbitals            :   246
 number of frozen core orbitals      :    18
 number of frozen virtual orbitals   :     0
 number of internal orbitals         :    14
 number of external orbitals         :   214
 spatial symmetry:   a  
 
 total number of configurations  158587185
 number of reference configurations  1275
 --------------------------------------------------- 
 starting cidrt.x  -m 200000 < cidrtin.2 > cidrtls at Sat May 14 20:00:33 EDT 2022

 -------------------- cidrt.x ------------------------
 total number of orbitals            :   246
 number of frozen core orbitals      :    18
 number of frozen virtual orbitals   :     0
 number of internal orbitals         :    14
 number of external orbitals         :   214
 spatial symmetry:   a  
 
 total number of configurations  282461366
 number of reference configurations  1666
 --------------------------------------------------- 
 starting tran.x -m 200000  at Sat May 14 20:00:38 EDT 2022

 -------------------- tran.x ------------------------
 --------------------------------------------------- 
  Starting ciudgav with DRT # 1 out of 2 

 *** starting pciudg section *** 
nproc: 48 machinefile:  
assuming machinefile syntax: one host name per line optionally repeated
 section2, MPI_STARTUP:
 /software/apps/mpi/openmpi/3.1/intel/18.0/bin/mpirun -np 48  /home-4/yshen57@jhu.edu/Software/Chemistry/Columbus-7.0.2_OpenMolcas-18.09-col/Columbus/pciudg.x -m 19000 
 -------------------- pciudg.x ------------------------
 type of calculation:          mr-sdci
 number of configurations:     158587185
 total mr-sdci energy             -286.0444266663 
 last mr-sdci energy change           0.0000000000 
 residual                             0.0000066589 
  type of calculation:          mr-sdci
 number of configurations:     158587185
 total mr-sdci energy             -285.8630414905 
 last mr-sdci energy change           0.0000000000 
 residual                             0.0000047700 
  type of calculation:          mr-sdci
 number of configurations:     158587185
 total mr-sdci energy             -285.8569016300 
 last mr-sdci energy change           0.0000000000 
 residual                             0.0000048084 
  type of calculation:          mr-sdci
 number of configurations:     158587185
 total mr-sdci energy             -285.8080926562 
 last mr-sdci energy change           0.0000000000 
 residual                             0.0000055630 
  --------------------------------------------------- 
 keyinfile returned docipci=0:
starting cipc.x -m 200000 < cipcin > cipcls at Sun May 15 13:08:44 EDT 2022

 -------------------- cipc.x ------------------------
 --------------------------------------------------- 
  Starting ciudgav with DRT # 2 out of 2 

 *** starting pciudg section *** 
nproc: 48 machinefile:  
assuming machinefile syntax: one host name per line optionally repeated
 section2, MPI_STARTUP:
 /software/apps/mpi/openmpi/3.1/intel/18.0/bin/mpirun -np 48  /home-4/yshen57@jhu.edu/Software/Chemistry/Columbus-7.0.2_OpenMolcas-18.09-col/Columbus/pciudg.x -m 19000 
 -------------------- pciudg.x ------------------------
 type of calculation:          mr-sdci
 number of configurations:     282461366
 total mr-sdci energy             -285.8879893428 
 last mr-sdci energy change           0.0000000000 
 residual                             0.0000072543 
  type of calculation:          mr-sdci
 number of configurations:     282461366
 total mr-sdci energy             -285.8711539577 
 last mr-sdci energy change           0.0000000000 
 residual                             0.0000031363 
  type of calculation:          mr-sdci
 number of configurations:     282461366
 total mr-sdci energy             -285.8649610314 
 last mr-sdci energy change           0.0000000000 
 residual                             0.0000092410 
  type of calculation:          mr-sdci
 number of configurations:     282461366
 total mr-sdci energy             -285.8603153373 
 last mr-sdci energy change           0.0000000000 
 residual                             0.0000074950 
  --------------------------------------------------- 
 keyinfile returned docipci=0:
starting cipc.x -m 200000 < cipcin > cipcls at Tue May 17 03:15:42 EDT 2022

 -------------------- cipc.x ------------------------
 --------------------------------------------------- 
 Reindex call
run_socinr: imult=1 irrep=1 
opening file =ciudgls.drt1.sp
opening file =ciudgls.drt1.sp
opening file =ciudgls.drt1.sp
opening file =ciudgls.drt1.sp
run_socinr: imult=3 irrep=1 
opening file =ciudgls.drt2.sp
opening file =ciudgls.drt2.sp
opening file =ciudgls.drt2.sp
opening file =ciudgls.drt2.sp
 copying /scratch/users/yshen57@jhu.edu/Molcas/slow/0.8/mrci/cidrtfl.so__A --> cidrtfl.so__A 
 copying /scratch/users/yshen57@jhu.edu/Molcas/slow/0.8/mrci/cidrtfl.so__A --> cidrtfl.so__A 
starting reindex.x -m 200000 > reindexls at Tue May 17 03:16:08 EDT 2022

 -------------------- reindex.x ------------------------
 --------------------------------------------------- 
 1      1        1           civfl_1_A             1      1    0+       1             1         civfl.so__A
1      1        2           civfl_1_A             1      1    0+       2    1005971284         civfl.so__A
1      1        3           civfl_1_A             1      1    0+       3    2011942567         civfl.so__A
1      1        4           civfl_1_A             1      1    0+       4    3017913850         civfl.so__A
3      1        1           civfl_3_A             1      3    0+       5    4023885133         civfl.so__A
3      1        1           civfl_3_A             1      3    1+       6    5029856416         civfl.so__A
3      1        1           civfl_3_A             1      3    1-       7    6035827699         civfl.so__A
3      1        2           civfl_3_A             1      3    0+       8    7041798982         civfl.so__A
3      1        2           civfl_3_A             1      3    1+       9    8047770265         civfl.so__A
3      1        2           civfl_3_A             1      3    1-      10    9053741548         civfl.so__A
3      1        3           civfl_3_A             1      3    0+      11   10059712831         civfl.so__A
3      1        3           civfl_3_A             1      3    1+      12   11065684114         civfl.so__A
3      1        3           civfl_3_A             1      3    1-      13   12071655397         civfl.so__A
3      1        4           civfl_3_A             1      3    0+      14   13077626680         civfl.so__A
3      1        4           civfl_3_A             1      3    1+      15   14083597963         civfl.so__A
3      1        4           civfl_3_A             1      3    1-      16   15089569246         civfl.so__A
 Executing ciudg.x  for gamma =A ...

 *** starting pciudg section *** 
nproc: 48 machinefile:  
assuming machinefile syntax: one host name per line optionally repeated
 section2, MPI_STARTUP:
 /software/apps/mpi/openmpi/3.1/intel/18.0/bin/mpirun -np 48  /home-4/yshen57@jhu.edu/Software/Chemistry/Columbus-7.0.2_OpenMolcas-18.09-col/Columbus/pciudg.x -m 19000 
 -------------------- pciudg.x ------------------------
 type of calculation:          mr-sdci
 number of configurations:     1005971283
 total mr-sdci energy             -286.0444266681 
 last mr-sdci energy change           0.0000000018 
 residual                            36.9660000000 
  type of calculation:          mr-sdci
 number of configurations:     1005971283
 total mr-sdci energy             -285.8879893464 
 last mr-sdci energy change           0.0249480000 
 residual                            36.8090000000 
  type of calculation:          mr-sdci
 number of configurations:     1005971283
 total mr-sdci energy             -285.8879893463 
 last mr-sdci energy change           0.0310880000 
 residual                            36.8090000000 
  type of calculation:          mr-sdci
 number of configurations:     1005971283
 total mr-sdci energy             -285.8879893455 
 last mr-sdci energy change           0.0798970000 
 residual                            36.8090000000 
  type of calculation:          mr-sdci
 number of configurations:     1005971283
 total mr-sdci energy             -285.8711539589 
 last mr-sdci energy change          -0.0168350000 
 residual                            36.7920000000 
  type of calculation:          mr-sdci
 number of configurations:     1005971283
 total mr-sdci energy             -285.8711539585 
 last mr-sdci energy change          -0.0168350000 
 residual                            36.7920000000 
  type of calculation:          mr-sdci
 number of configurations:     1005971283
 total mr-sdci energy             -285.8711539580 
 last mr-sdci energy change          -0.0168350000 
 residual                            36.7920000000 
  type of calculation:          mr-sdci
 number of configurations:     1005971283
 total mr-sdci energy             -285.8649610326 
 last mr-sdci energy change          -0.0061929000 
 residual                            36.7860000000 
  type of calculation:          mr-sdci
 number of configurations:     1005971283
 total mr-sdci energy             -285.8649610316 
 last mr-sdci energy change          -0.0061929000 
 residual                            36.7860000000 
  type of calculation:          mr-sdci
 number of configurations:     1005971283
 total mr-sdci energy             -285.8649610293 
 last mr-sdci energy change          -0.0061929000 
 residual                            36.7860000000 
  type of calculation:          mr-sdci
 number of configurations:     1005971283
 total mr-sdci energy             -285.8630414933 
 last mr-sdci energy change          -0.0019195000 
 residual                            36.7840000000 
  type of calculation:          mr-sdci
 number of configurations:     1005971283
 total mr-sdci energy             -285.8603153331 
 last mr-sdci energy change          -0.0046457000 
 residual                            36.7820000000 
  type of calculation:          mr-sdci
 number of configurations:     1005971283
 total mr-sdci energy             -285.8603153328 
 last mr-sdci energy change          -0.0046457000 
 residual                            36.7820000000 
  type of calculation:          mr-sdci
 number of configurations:     1005971283
 total mr-sdci energy             -285.8603153312 
 last mr-sdci energy change          -0.0000000061 
 residual                            36.7820000000 
  type of calculation:          mr-sdci
 number of configurations:     1005971283
 total mr-sdci energy             -285.8569016293 
 last mr-sdci energy change          -0.0034137000 
 residual                            36.7780000000 
  type of calculation:          mr-sdci
 number of configurations:     1005971283
 total mr-sdci energy             -285.8080926558 
 last mr-sdci energy change          -0.0522230000 
 residual                            36.7290000000 
  --------------------------------------------------- 
 ************* Results for Spin-Orbit CI gamma=A **************** 
Final spin-orbit CI state energies: 


-------------- HT matrix in AU ----------------  
-36.965646    
 0.000000    -36.784261    
 0.000000     0.000000    -36.778121    
 0.000000     0.000000     0.000000    -36.729312    
-0.000001     0.000007    -0.000000    -0.000000    -36.809209    
-0.000000     0.000001     0.000000    -0.000000     0.000000    -36.809209    
-0.000001     0.000003     0.000002     0.000001     0.000000     0.000000    -36.809209    
-0.000001    -0.000000     0.000000     0.000004     0.000000     0.000001    -0.000000    -36.792373    
-0.000001    -0.000000     0.000000     0.000000    -0.000001     0.000000     0.000001    -0.000000    -36.792373    
-0.000004     0.000002    -0.000000     0.000002     0.000000    -0.000001     0.000000     0.000000    -0.000000    -36.792373    
-0.000014     0.000000     0.000000    -0.000000     0.000000     0.000003    -0.000001     0.000000     0.000002     0.000000    -36.786180    
-0.000002     0.000000     0.000000    -0.000000    -0.000003     0.000000     0.000008    -0.000002     0.000000    -0.000000     0.000000    -36.786180    
-0.000010    -0.000000    -0.000002    -0.000001     0.000001    -0.000008     0.000000    -0.000000     0.000000     0.000000     0.000000     0.000000    -36.786180    
 0.000001    -0.000004     0.000000    -0.000000     0.000000    -0.000000     0.000000     0.000000     0.000002    -0.000000     0.000000     0.000002    -0.000000    -36.781535    
 0.000000    -0.000000     0.000000    -0.000000     0.000000     0.000000    -0.000000    -0.000002     0.000000     0.000000    -0.000002     0.000000     0.000004     0.000000    -36.781535    
 0.000002    -0.000002     0.000000     0.000001    -0.000000     0.000000     0.000000     0.000000    -0.000000     0.000000     0.000000    -0.000004     0.000000     0.000000    -0.000000    -36.781535    
-------------- HT matrix in eV ---------------- 
-1005.886   
    0.000   -1000.951   
    0.000       0.000   -1000.784   
    0.000       0.000       0.000    -999.455   
   -0.000       0.000      -0.000      -0.000   -1001.630   
   -0.000       0.000       0.000      -0.000       0.000   -1001.630   
   -0.000       0.000       0.000       0.000       0.000       0.000   -1001.630   
   -0.000      -0.000       0.000       0.000       0.000       0.000      -0.000   -1001.171   
   -0.000      -0.000       0.000       0.000      -0.000       0.000       0.000      -0.000   -1001.171   
   -0.000       0.000      -0.000       0.000       0.000      -0.000       0.000       0.000      -0.000   -1001.171   
   -0.000       0.000       0.000      -0.000       0.000       0.000      -0.000       0.000       0.000       0.000   -1001.003   
   -0.000       0.000       0.000      -0.000      -0.000       0.000       0.000      -0.000       0.000      -0.000       0.000   -1001.003   
   -0.000      -0.000      -0.000      -0.000       0.000      -0.000       0.000      -0.000       0.000       0.000       0.000       0.000   -1001.003   
    0.000      -0.000       0.000      -0.000       0.000      -0.000       0.000       0.000       0.000      -0.000       0.000       0.000      -0.000   -1000.876   
    0.000      -0.000       0.000      -0.000       0.000       0.000      -0.000      -0.000       0.000       0.000      -0.000       0.000       0.000       0.000   -1000.876   
    0.000      -0.000       0.000       0.000      -0.000       0.000       0.000       0.000      -0.000       0.000       0.000      -0.000       0.000       0.000      -0.000   -1000.876   
-------------- HT matrix in cm-1 ------------------- 
Eref = -36.96564611
     0.00   
     0.00    39809.51   
     0.00        0.00    41157.06   
     0.00        0.00        0.00    51869.41   
    -0.17        1.63       -0.06       -0.04    34334.08   
    -0.06        0.11        0.08       -0.02        0.00    34334.08   
    -0.31        0.76        0.49        0.32        0.00        0.00    34334.08   
    -0.27       -0.05        0.04        0.95        0.00        0.21       -0.03    38029.03   
    -0.18       -0.09        0.01        0.07       -0.21        0.00        0.14        0.00    38029.03   
    -0.98        0.36       -0.06        0.40        0.03       -0.14        0.00        0.00        0.00    38029.03   
    -3.14        0.02        0.05       -0.09        0.00        0.75       -0.11        0.00        0.40        0.09    39388.22   
    -0.46        0.01        0.09       -0.02       -0.75        0.00        1.78       -0.40        0.00       -0.05        0.00    39388.22   
    -2.09       -0.03       -0.43       -0.20        0.11       -1.78        0.00       -0.09        0.05        0.00        0.00        0.00    39388.22   
     0.25       -0.80        0.04       -0.08        0.00       -0.09        0.02        0.00        0.42       -0.08        0.00        0.37       -0.05    40407.83   
     0.08       -0.05        0.00       -0.06        0.09        0.00       -0.10       -0.42        0.00        0.09       -0.37        0.00        0.89        0.00    40407.83   
     0.38       -0.37        0.10        0.27       -0.02        0.10        0.00        0.08       -0.09        0.00        0.05       -0.89        0.00        0.00        0.00    40407.83   


Spin-Orbit CI: perturbational estimate of Spin-Orbit CI energies and wavefunctions 
                SO   1         SO   2         SO   3         SO   4         SO   5         SO   6         SO   7         SO   8

   energy  -286.04442667  -285.88798935  -285.88798935  -285.88798935  -285.87115396  -285.87115396  -285.87115396  -285.86496103
 
   NR   1    -0.99999999    -0.00000729    -0.00000055    -0.00000731     0.00000949     0.00000295    -0.00002523    -0.00001629
   NR   2     0.00000000    -0.00004952     0.00000018    -0.00032523    -0.00001318    -0.00006194    -0.00019856     0.00007679
   NR   3    -0.00000000    -0.00007263    -0.00000264    -0.00001227     0.00001077     0.00000390     0.00002146     0.00023910
   NR   4     0.00000000    -0.00001823     0.00000335    -0.00000283     0.00007068     0.00000286    -0.00002314     0.00001092
   NR   5    -0.00000493    -0.28363032    -0.00972252     0.95888435    -0.00000024     0.00005670     0.00000453     0.00005696
   NR   6    -0.00000175     0.11978711     0.99175690     0.04548790    -0.00005269    -0.00000230    -0.00004323    -0.00036967
   NR   7    -0.00000892     0.95142248    -0.12776374     0.28012773     0.00000778    -0.00003843     0.00000314    -0.00008004
   NR   8    -0.00000721     0.00000107    -0.00005690    -0.00000025    -0.99609806     0.00219502    -0.08822533     0.00001754
   NR   9    -0.00000465    -0.00005258     0.00000438     0.00004322    -0.00782237    -0.99795183     0.06348885    -0.00007049
   NR  10    -0.00002573     0.00000694     0.00003824    -0.00000613    -0.08790529     0.06393126     0.99407515    -0.00001273
   NR  11    -0.00007964     0.00000342    -0.00014948    -0.00000051     0.00000779     0.00028923    -0.00008073    -0.35728410
   NR  12    -0.00001166    -0.00037691     0.00004354     0.00004315    -0.00029602     0.00000310     0.00001212    -0.25003459
   NR  13    -0.00005295     0.00004846     0.00034939    -0.00000529    -0.00006178     0.00003834    -0.00000800     0.89990537
   NR  14     0.00000611    -0.00000046     0.00001565    -0.00000003    -0.00000145     0.00017963     0.00002123     0.00013451
   NR  15     0.00000192     0.00002029    -0.00000205    -0.00001014    -0.00017402    -0.00000190    -0.00005169    -0.00091406
   NR  16     0.00000937    -0.00000276    -0.00001660     0.00000158     0.00003226    -0.00003621     0.00000517    -0.00020055

                SO   9         SO  10         SO  11         SO  12         SO  13         SO  14         SO  15         SO  16

   energy  -285.86496103  -285.86496103  -285.86304149  -285.86031533  -285.86031533  -285.86031533  -285.85690163  -285.80809266
 
   NR   1     0.00000482     0.00009484    -0.00000001     0.00000629     0.00000067    -0.00000942     0.00000001    -0.00000000
   NR   2    -0.00000786     0.00002254    -0.99999884    -0.00003179    -0.00000339     0.00147086    -0.00000004    -0.00000000
   NR   3    -0.00000359    -0.00006340     0.00000013    -0.00009663     0.00001333     0.00010197     0.99999996    -0.00000000
   NR   4    -0.00000334    -0.00001308     0.00000001    -0.00002359     0.00000823     0.00000288    -0.00000001    -1.00000000
   NR   5     0.00013798     0.00000855    -0.00029782    -0.00000028     0.00001565     0.00000057    -0.00000887     0.00000242
   NR   6     0.00009566     0.00000408    -0.00002056     0.00002136    -0.00000247     0.00000754     0.00001196     0.00000100
   NR   7    -0.00034293    -0.00002095    -0.00013825    -0.00000326    -0.00001654    -0.00000118     0.00007221    -0.00001857
   NR   8     0.00029391     0.00005894     0.00003050     0.00000879    -0.00018071    -0.00000380     0.00001261    -0.00006836
   NR   9     0.00005287    -0.00028291     0.00004908    -0.00010425     0.00000463    -0.00014863     0.00000262    -0.00000487
   NR  10     0.00004950    -0.00005246    -0.00020014     0.00001747     0.00003588     0.00002837    -0.00002064    -0.00002903
   NR  11     0.20386191    -0.91147580    -0.00004958     0.00000205    -0.00036332    -0.00000086     0.00002838     0.00000734
   NR  12    -0.96114596    -0.11696166    -0.00001422    -0.00093717     0.00011325     0.00001748     0.00004880     0.00000202
   NR  13    -0.18611192    -0.39437511     0.00006168     0.00012352     0.00086546    -0.00000035    -0.00024084     0.00001561
   NR  14     0.00033677     0.00002273    -0.00133456    -0.40117862    -0.00010302    -0.91599878     0.00005461     0.00000683
   NR  15     0.00023589     0.00001614    -0.00008390     0.11882190     0.99154457    -0.05215169     0.00000381     0.00000518
   NR  16    -0.00084901    -0.00005711    -0.00061351     0.90825996    -0.12976300    -0.39777411     0.00013009    -0.00002364
rescaling new expansion vector ... old norm=   4742.9638555619

 model space basis from reindexls .. 
 --SO-CI-------         -----NR-CI-------             ---model space---- 
 Gamma  root             S   irrep   root                S   ms* 
A          1             1   A         1                 1   0+
A          2             1   A         2                 1   0+
A          3             1   A         3                 1   0+
A          4             1   A         4                 1   0+
A          5             3   A         1                 3   0+
A          6             3   A         1                 3   1+
A          7             3   A         1                 3   1-
A          8             3   A         2                 3   0+
A          9             3   A         2                 3   1+
A         10             3   A         2                 3   1-
A         11             3   A         3                 3   0+
A         12             3   A         3                 3   1+
A         13             3   A         3                 3   1-
A         14             3   A         4                 3   0+
A         15             3   A         4                 3   1+
A         16             3   A         4                 3   1-

************************** SUMMARY *********************************

--------------  SO matrix for irrep A in eV ---------------- 
|1,0+;1,A,1> -1005.886   
|1,0+;1,A,2>     0.000   -1000.951   
|1,0+;1,A,3>     0.000       0.000   -1000.784   
|1,0+;1,A,4>     0.000       0.000       0.000    -999.455   
|3,0+;3,A,1>    -0.000       0.000      -0.000      -0.000   -1001.630   
|3,1+;3,A,1>    -0.000       0.000       0.000      -0.000       0.000   -1001.630   
|3,1-;3,A,1>    -0.000       0.000       0.000       0.000       0.000       0.000   -1001.630   
|3,0+;3,A,2>    -0.000      -0.000       0.000       0.000       0.000       0.000      -0.000   -1001.171   
|3,1+;3,A,2>    -0.000      -0.000       0.000       0.000      -0.000       0.000       0.000      -0.000   -1001.171   
|3,1-;3,A,2>    -0.000       0.000      -0.000       0.000       0.000      -0.000       0.000       0.000      -0.000   -1001.171   
|3,0+;3,A,3>    -0.000       0.000       0.000      -0.000       0.000       0.000      -0.000       0.000       0.000       0.000   -1001.003   
|3,1+;3,A,3>    -0.000       0.000       0.000      -0.000      -0.000       0.000       0.000      -0.000       0.000      -0.000       0.000   -1001.003   
|3,1-;3,A,3>    -0.000      -0.000      -0.000      -0.000       0.000      -0.000       0.000      -0.000       0.000       0.000       0.000       0.000   -1001.003   
|3,0+;3,A,4>     0.000      -0.000       0.000      -0.000       0.000      -0.000       0.000       0.000       0.000      -0.000       0.000       0.000      -0.000   -1000.876   
|3,1+;3,A,4>     0.000      -0.000       0.000      -0.000       0.000       0.000      -0.000      -0.000       0.000       0.000      -0.000       0.000       0.000       0.000   -1000.876   
|3,1-;3,A,4>     0.000      -0.000       0.000       0.000      -0.000       0.000       0.000       0.000      -0.000       0.000       0.000      -0.000       0.000       0.000      -0.000   -1000.876   

--------------  SO matrix for irrep A in cm-1 ------------------- 
Eref = -36.96564611
|1,0+;1,A,1>      0.00   
|1,0+;1,A,2>      0.00    39809.51   
|1,0+;1,A,3>      0.00        0.00    41157.06   
|1,0+;1,A,4>      0.00        0.00        0.00    51869.41   
|3,0+;3,A,1>     -0.17        1.63       -0.06       -0.04    34334.08   
|3,1+;3,A,1>     -0.06        0.11        0.08       -0.02        0.00    34334.08   
|3,1-;3,A,1>     -0.31        0.76        0.49        0.32        0.00        0.00    34334.08   
|3,0+;3,A,2>     -0.27       -0.05        0.04        0.95        0.00        0.21       -0.03    38029.03   
|3,1+;3,A,2>     -0.18       -0.09        0.01        0.07       -0.21        0.00        0.14        0.00    38029.03   
|3,1-;3,A,2>     -0.98        0.36       -0.06        0.40        0.03       -0.14        0.00        0.00        0.00    38029.03   
|3,0+;3,A,3>     -3.14        0.02        0.05       -0.09        0.00        0.75       -0.11        0.00        0.40        0.09    39388.22   
|3,1+;3,A,3>     -0.46        0.01        0.09       -0.02       -0.75        0.00        1.78       -0.40        0.00       -0.05        0.00    39388.22   
|3,1-;3,A,3>     -2.09       -0.03       -0.43       -0.20        0.11       -1.78        0.00       -0.09        0.05        0.00        0.00        0.00    39388.22   
|3,0+;3,A,4>      0.25       -0.80        0.04       -0.08        0.00       -0.09        0.02        0.00        0.42       -0.08        0.00        0.37       -0.05    40407.83   
|3,1+;3,A,4>      0.08       -0.05        0.00       -0.06        0.09        0.00       -0.10       -0.42        0.00        0.09       -0.37        0.00        0.89        0.00    40407.83   
|3,1-;3,A,4>      0.38       -0.37        0.10        0.27       -0.02        0.10        0.00        0.08       -0.09        0.00        0.05       -0.89        0.00        0.00        0.00    40407.83   


 ** perturbational estimate of Spin-Orbit CI energies and wavefunctions in model space basis** 

                      A  1         A  2         A  3         A  4         A  5         A  6         A  7         A  8

            energy  -286.04442667  -285.88798935  -285.88798935  -285.88798935  -285.87115396  -285.87115396  -285.87115396  -285.86496103
          
   |1,0+;1,A,1>    -0.99999999    -0.00000729    -0.00000055    -0.00000731     0.00000949     0.00000295    -0.00002523    -0.00001629
   |1,0+;1,A,2>     0.00000000    -0.00004952     0.00000018    -0.00032523    -0.00001318    -0.00006194    -0.00019856     0.00007679
   |1,0+;1,A,3>    -0.00000000    -0.00007263    -0.00000264    -0.00001227     0.00001077     0.00000390     0.00002146     0.00023910
   |1,0+;1,A,4>     0.00000000    -0.00001823     0.00000335    -0.00000283     0.00007068     0.00000286    -0.00002314     0.00001092
   |3,0+;3,A,1>    -0.00000493    -0.28363032    -0.00972252     0.95888435    -0.00000024     0.00005670     0.00000453     0.00005696
   |3,1+;3,A,1>    -0.00000175     0.11978711     0.99175690     0.04548790    -0.00005269    -0.00000230    -0.00004323    -0.00036967
   |3,1-;3,A,1>    -0.00000892     0.95142248    -0.12776374     0.28012773     0.00000778    -0.00003843     0.00000314    -0.00008004
   |3,0+;3,A,2>    -0.00000721     0.00000107    -0.00005690    -0.00000025    -0.99609806     0.00219502    -0.08822533     0.00001754
   |3,1+;3,A,2>    -0.00000465    -0.00005258     0.00000438     0.00004322    -0.00782237    -0.99795183     0.06348885    -0.00007049
   |3,1-;3,A,2>    -0.00002573     0.00000694     0.00003824    -0.00000613    -0.08790529     0.06393126     0.99407515    -0.00001273
   |3,0+;3,A,3>    -0.00007964     0.00000342    -0.00014948    -0.00000051     0.00000779     0.00028923    -0.00008073    -0.35728410
   |3,1+;3,A,3>    -0.00001166    -0.00037691     0.00004354     0.00004315    -0.00029602     0.00000310     0.00001212    -0.25003459
   |3,1-;3,A,3>    -0.00005295     0.00004846     0.00034939    -0.00000529    -0.00006178     0.00003834    -0.00000800     0.89990537
   |3,0+;3,A,4>     0.00000611    -0.00000046     0.00001565    -0.00000003    -0.00000145     0.00017963     0.00002123     0.00013451
   |3,1+;3,A,4>     0.00000192     0.00002029    -0.00000205    -0.00001014    -0.00017402    -0.00000190    -0.00005169    -0.00091406
   |3,1-;3,A,4>     0.00000937    -0.00000276    -0.00001660     0.00000158     0.00003226    -0.00003621     0.00000517    -0.00020055

                      A  9         A 10         A 11         A 12         A 13         A 14         A 15         A 16

            energy  -285.86496103  -285.86496103  -285.86304149  -285.86031533  -285.86031533  -285.86031533  -285.85690163  -285.80809266
          
   |1,0+;1,A,1>     0.00000482     0.00009484    -0.00000001     0.00000629     0.00000067    -0.00000942     0.00000001    -0.00000000
   |1,0+;1,A,2>    -0.00000786     0.00002254    -0.99999884    -0.00003179    -0.00000339     0.00147086    -0.00000004    -0.00000000
   |1,0+;1,A,3>    -0.00000359    -0.00006340     0.00000013    -0.00009663     0.00001333     0.00010197     0.99999996    -0.00000000
   |1,0+;1,A,4>    -0.00000334    -0.00001308     0.00000001    -0.00002359     0.00000823     0.00000288    -0.00000001    -1.00000000
   |3,0+;3,A,1>     0.00013798     0.00000855    -0.00029782    -0.00000028     0.00001565     0.00000057    -0.00000887     0.00000242
   |3,1+;3,A,1>     0.00009566     0.00000408    -0.00002056     0.00002136    -0.00000247     0.00000754     0.00001196     0.00000100
   |3,1-;3,A,1>    -0.00034293    -0.00002095    -0.00013825    -0.00000326    -0.00001654    -0.00000118     0.00007221    -0.00001857
   |3,0+;3,A,2>     0.00029391     0.00005894     0.00003050     0.00000879    -0.00018071    -0.00000380     0.00001261    -0.00006836
   |3,1+;3,A,2>     0.00005287    -0.00028291     0.00004908    -0.00010425     0.00000463    -0.00014863     0.00000262    -0.00000487
   |3,1-;3,A,2>     0.00004950    -0.00005246    -0.00020014     0.00001747     0.00003588     0.00002837    -0.00002064    -0.00002903
   |3,0+;3,A,3>     0.20386191    -0.91147580    -0.00004958     0.00000205    -0.00036332    -0.00000086     0.00002838     0.00000734
   |3,1+;3,A,3>    -0.96114596    -0.11696166    -0.00001422    -0.00093717     0.00011325     0.00001748     0.00004880     0.00000202
   |3,1-;3,A,3>    -0.18611192    -0.39437511     0.00006168     0.00012352     0.00086546    -0.00000035    -0.00024084     0.00001561
   |3,0+;3,A,4>     0.00033677     0.00002273    -0.00133456    -0.40117862    -0.00010302    -0.91599878     0.00005461     0.00000683
   |3,1+;3,A,4>     0.00023589     0.00001614    -0.00008390     0.11882190     0.99154457    -0.05215169     0.00000381     0.00000518
   |3,1-;3,A,4>    -0.00084901    -0.00005711    -0.00061351     0.90825996    -0.12976300    -0.39777411     0.00013009    -0.00002364
rescaling new expansion vector ... old norm=   4742.9638555619

Sorted Energies:
1  -286.04442667 
2  -285.88798935 
3  -285.88798935 
4  -285.88798935 
5  -285.87115396 
6  -285.87115396 
7  -285.87115396 
8  -285.86496103 
9  -285.86496103 
10  -285.86496103 
11  -285.86304149 
12  -285.86031533 
13  -285.86031533 
14  -285.86031533 
15  -285.85690163 
16  -285.80809266 
Not computing transition moment with identical bra and ket.
 Calculating transition moment for (1,1) => (1,2)
 starting transci.x -m 200000 at Tue May 17 05:06:05 EDT 2022

 -------------------- transci.x ------------------------

                          State No. 1            State No. 2

   Space symmetry:           a                      a   
   No. of CSFs:          ********               ********
   State energies:      -286.04442667          -285.86304149  a.u.

   Transition energy:     0.18138518  a.u.
   Transition energy:     4.94        eV

       Transition moment components:

                 x            y            z

electron          0.121754    -0.011804     0.004699  e*bohr
frozen core       0.000000     0.000000     0.000000  e*bohr
total (elec)      0.121754    -0.011804     0.004699  e*bohr


   Tr.dipole length:     0.122415    e*bohr
   Oscillator strength :  0.001812
   Einstein A coef.:     0.1915E+07  1/sec
   Einstein B coef.:     0.6081E+07  sec/g

                 x            y            z

<L> electron     0.036498     0.080911     0.271112  e*bohr


   <L> value length:     0.285272    e*bohr
 --------------------------------------------------- 
  Calculating transition moment for (1,1) => (1,3)
 starting transci.x -m 200000 at Tue May 17 05:08:17 EDT 2022

 -------------------- transci.x ------------------------

                          State No. 1            State No. 2

   Space symmetry:           a                      a   
   No. of CSFs:          ********               ********
   State energies:      -286.04442667          -285.85690163  a.u.

   Transition energy:     0.18752504  a.u.
   Transition energy:     5.10        eV

       Transition moment components:

                 x            y            z

electron         -0.021551    -0.001735    -0.408354  e*bohr
frozen core       0.000000     0.000000     0.000000  e*bohr
total (elec)     -0.021551    -0.001735    -0.408354  e*bohr


   Tr.dipole length:     0.408926    e*bohr
   Oscillator strength :  0.020905
   Einstein A coef.:     0.2362E+08  1/sec
   Einstein B coef.:     0.6786E+08  sec/g

                 x            y            z

<L> electron    -0.000836     0.531045    -0.009031  e*bohr


   <L> value length:     0.531123    e*bohr
 --------------------------------------------------- 
  Calculating transition moment for (1,1) => (1,4)
 starting transci.x -m 200000 at Tue May 17 05:10:35 EDT 2022

 -------------------- transci.x ------------------------

                          State No. 1            State No. 2

   Space symmetry:           a                      a   
   No. of CSFs:          ********               ********
   State energies:      -286.04442667          -285.80809266  a.u.

   Transition energy:     0.23633401  a.u.
   Transition energy:     6.43        eV

       Transition moment components:

                 x            y            z

electron         -0.011184     0.000692     0.040124  e*bohr
frozen core       0.000000     0.000000     0.000000  e*bohr
total (elec)     -0.011184     0.000692     0.040124  e*bohr


   Tr.dipole length:     0.041659    e*bohr
   Oscillator strength :  0.000273
   Einstein A coef.:     0.4907E+06  1/sec
   Einstein B coef.:     0.7043E+06  sec/g

                 x            y            z

<L> electron    -0.473081    -0.024485    -0.000142  e*bohr


   <L> value length:     0.473714    e*bohr
 --------------------------------------------------- 
 Not computing transition moment with identical bra and ket.
 Calculating transition moment for (1,2) => (1,3)
 starting transci.x -m 200000 at Tue May 17 05:12:47 EDT 2022

 -------------------- transci.x ------------------------

                          State No. 1            State No. 2

   Space symmetry:           a                      a   
   No. of CSFs:          ********               ********
   State energies:      -285.86304149          -285.85690163  a.u.

   Transition energy:     0.00613986  a.u.
   Transition energy:     0.17        eV

       Transition moment components:

                 x            y            z

electron          0.282203    -0.003613     0.020626  e*bohr
frozen core       0.000000     0.000000     0.000000  e*bohr
total (elec)      0.282203    -0.003613     0.020626  e*bohr


   Tr.dipole length:     0.282978    e*bohr
   Oscillator strength :  0.000328
   Einstein A coef.:     0.3970E+03  1/sec
   Einstein B coef.:     0.3250E+08  sec/g

                 x            y            z

<L> electron    -0.125534     0.070639    -0.004124  e*bohr


   <L> value length:     0.144103    e*bohr
 --------------------------------------------------- 
  Calculating transition moment for (1,2) => (1,4)
 starting transci.x -m 200000 at Tue May 17 05:14:56 EDT 2022

 -------------------- transci.x ------------------------

                          State No. 1            State No. 2

   Space symmetry:           a                      a   
   No. of CSFs:          ********               ********
   State energies:      -285.86304149          -285.80809266  a.u.

   Transition energy:     0.05494883  a.u.
   Transition energy:     1.50        eV

       Transition moment components:

                 x            y            z

electron         -0.005257    -0.002814    -0.170530  e*bohr
frozen core       0.000000     0.000000     0.000000  e*bohr
total (elec)     -0.005257    -0.002814    -0.170530  e*bohr


   Tr.dipole length:     0.170635    e*bohr
   Oscillator strength :  0.001067
   Einstein A coef.:     0.1035E+06  1/sec
   Einstein B coef.:     0.1182E+08  sec/g

                 x            y            z

<L> electron    -0.013881     0.633266    -0.008845  e*bohr


   <L> value length:     0.633480    e*bohr
 --------------------------------------------------- 
 Not computing transition moment with identical bra and ket.
 Calculating transition moment for (1,3) => (1,4)
 starting transci.x -m 200000 at Tue May 17 05:17:05 EDT 2022

 -------------------- transci.x ------------------------

                          State No. 1            State No. 2

   Space symmetry:           a                      a   
   No. of CSFs:          ********               ********
   State energies:      -285.85690163          -285.80809266  a.u.

   Transition energy:     0.04880897  a.u.
   Transition energy:     1.33        eV

       Transition moment components:

                 x            y            z

electron         -0.125361     0.008446    -0.003085  e*bohr
frozen core       0.000000     0.000000     0.000000  e*bohr
total (elec)     -0.125361     0.008446    -0.003085  e*bohr


   Tr.dipole length:     0.125683    e*bohr
   Oscillator strength :  0.000514
   Einstein A coef.:     0.3934E+05  1/sec
   Einstein B coef.:     0.6410E+07  sec/g

                 x            y            z

<L> electron    -0.008746    -0.015138    -0.111446  e*bohr


   <L> value length:     0.112808    e*bohr
 --------------------------------------------------- 
 Not computing transition moment with identical bra and ket.
Not computing transition moment with identical bra and ket.
 Calculating transition moment for (2,1) => (2,2)
 starting transci.x -m 200000 at Tue May 17 05:19:13 EDT 2022

 -------------------- transci.x ------------------------

                          State No. 1            State No. 2

   Space symmetry:           a                      a   
   No. of CSFs:          ********               ********
   State energies:      -285.88798934          -285.87115396  a.u.

   Transition energy:     0.01683539  a.u.
   Transition energy:     0.46        eV

       Transition moment components:

                 x            y            z

electron         -0.005013    -0.004351    -0.218890  e*bohr
frozen core       0.000000     0.000000     0.000000  e*bohr
total (elec)     -0.005013    -0.004351    -0.218890  e*bohr


   Tr.dipole length:     0.218991    e*bohr
   Oscillator strength :  0.000538
   Einstein A coef.:     0.4901E+04  1/sec
   Einstein B coef.:     0.1946E+08  sec/g

                 x            y            z

<L> electron     0.015826    -1.049200     0.008270  e*bohr


   <L> value length:     1.049351    e*bohr
 --------------------------------------------------- 
  Calculating transition moment for (2,1) => (2,3)
 starting transci.x -m 200000 at Tue May 17 05:23:31 EDT 2022

 -------------------- transci.x ------------------------

                          State No. 1            State No. 2

   Space symmetry:           a                      a   
   No. of CSFs:          ********               ********
   State energies:      -285.88798934          -285.86496103  a.u.

   Transition energy:     0.02302831  a.u.
   Transition energy:     0.63        eV

       Transition moment components:

                 x            y            z

electron          0.093501    -0.042361     0.039926  e*bohr
frozen core       0.000000     0.000000     0.000000  e*bohr
total (elec)      0.093501    -0.042361     0.039926  e*bohr


   Tr.dipole length:     0.110141    e*bohr
   Oscillator strength :  0.000186
   Einstein A coef.:     0.3173E+04  1/sec
   Einstein B coef.:     0.4923E+07  sec/g

                 x            y            z

<L> electron     0.011024     0.075370     0.125715  e*bohr


   <L> value length:     0.146991    e*bohr
 --------------------------------------------------- 
  Calculating transition moment for (2,1) => (2,4)
 starting transci.x -m 200000 at Tue May 17 05:27:39 EDT 2022

 -------------------- transci.x ------------------------

                          State No. 1            State No. 2

   Space symmetry:           a                      a   
   No. of CSFs:          ********               ********
   State energies:      -285.88798934          -285.86031534  a.u.

   Transition energy:     0.02767401  a.u.
   Transition energy:     0.75        eV

       Transition moment components:

                 x            y            z

electron         -0.170354     0.007974    -0.002217  e*bohr
frozen core       0.000000     0.000000     0.000000  e*bohr
total (elec)     -0.170354     0.007974    -0.002217  e*bohr


   Tr.dipole length:     0.170555    e*bohr
   Oscillator strength :  0.000537
   Einstein A coef.:     0.1320E+05  1/sec
   Einstein B coef.:     0.1180E+08  sec/g

                 x            y            z

<L> electron    -0.000965    -0.008738    -0.010874  e*bohr


   <L> value length:     0.013983    e*bohr
 --------------------------------------------------- 
 Not computing transition moment with identical bra and ket.
 Calculating transition moment for (2,2) => (2,3)
 starting transci.x -m 200000 at Tue May 17 05:31:42 EDT 2022

 -------------------- transci.x ------------------------

                          State No. 1            State No. 2

   Space symmetry:           a                      a   
   No. of CSFs:          ********               ********
   State energies:      -285.87115396          -285.86496103  a.u.

   Transition energy:     0.00619293  a.u.
   Transition energy:     0.17        eV

       Transition moment components:

                 x            y            z

electron         -0.272785    -0.008181     0.029794  e*bohr
frozen core       0.000000     0.000000     0.000000  e*bohr
total (elec)     -0.272785    -0.008181     0.029794  e*bohr


   Tr.dipole length:     0.274529    e*bohr
   Oscillator strength :  0.000311
   Einstein A coef.:     0.3834E+03  1/sec
   Einstein B coef.:     0.3059E+08  sec/g

                 x            y            z

<L> electron     0.101186    -0.005514     0.004669  e*bohr


   <L> value length:     0.101444    e*bohr
 --------------------------------------------------- 
  Calculating transition moment for (2,2) => (2,4)
 starting transci.x -m 200000 at Tue May 17 05:35:38 EDT 2022

 -------------------- transci.x ------------------------

                          State No. 1            State No. 2

   Space symmetry:           a                      a   
   No. of CSFs:          ********               ********
   State energies:      -285.87115396          -285.86031534  a.u.

   Transition energy:     0.01083862  a.u.
   Transition energy:     0.29        eV

       Transition moment components:

                 x            y            z

electron          0.013508     0.003346    -0.061511  e*bohr
frozen core       0.000000     0.000000     0.000000  e*bohr
total (elec)      0.013508     0.003346    -0.061511  e*bohr


   Tr.dipole length:     0.063066    e*bohr
   Oscillator strength :  0.000029
   Einstein A coef.:     0.1085E+03  1/sec
   Einstein B coef.:     0.1614E+07  sec/g

                 x            y            z

<L> electron    -0.005363    -0.449991     0.004100  e*bohr


   <L> value length:     0.450042    e*bohr
 --------------------------------------------------- 
 Not computing transition moment with identical bra and ket.
 Calculating transition moment for (2,3) => (2,4)
 starting transci.x -m 200000 at Tue May 17 05:39:33 EDT 2022

 -------------------- transci.x ------------------------

                          State No. 1            State No. 2

   Space symmetry:           a                      a   
   No. of CSFs:          ********               ********
   State energies:      -285.86496103          -285.86031534  a.u.

   Transition energy:     0.00464569  a.u.
   Transition energy:     0.13        eV

       Transition moment components:

                 x            y            z

electron          0.184900     0.054348    -0.015756  e*bohr
frozen core       0.000000     0.000000     0.000000  e*bohr
total (elec)      0.184900     0.054348    -0.015756  e*bohr


   Tr.dipole length:     0.193365    e*bohr
   Oscillator strength :  0.000116
   Einstein A coef.:     0.8030E+02  1/sec
   Einstein B coef.:     0.1517E+08  sec/g

                 x            y            z

<L> electron     0.006510     0.038224     0.059421  e*bohr


   <L> value length:     0.070953    e*bohr
 --------------------------------------------------- 
 Not computing transition moment with identical bra and ket.
 --- ci properties for state 1 of  DRT 1 ----
starting exptvl.x -m 200000  at Tue May 17 05:43:29 EDT 2022

 -------------------- exptvl.x ------------------------
  === dipole moment === 
                     X               Y               Z   
   orign x       0.00000000      0.00000000      0.00000000
   orign y       0.00000000      0.00000000      0.00000000
   orign z       0.00000000      0.00000000      0.00000000
   nuclear      -0.54361444     -0.16427821      0.32755097
   electronic    0.11078539     -0.18635409     -0.28463410
   total        -0.43282905     -0.35063230      0.04291687
   total Dipole moment =   1.42003004    Debye
 !timer: exptvl required                 cpu_time=     0.179 walltime=     0.600
 --------------------------------------------------- 
  --- ci properties for state 2 of  DRT 1 ----
starting exptvl.x -m 200000  at Tue May 17 05:43:30 EDT 2022

 -------------------- exptvl.x ------------------------
  === dipole moment === 
                     X               Y               Z   
   orign x       0.00000000      0.00000000      0.00000000
   orign y       0.00000000      0.00000000      0.00000000
   orign z       0.00000000      0.00000000      0.00000000
   nuclear      -0.54361444     -0.16427821      0.32755097
   electronic    4.08703214     -0.14502107     -0.28820250
   total         3.54341770     -0.30929928      0.03934847
   total Dipole moment =   9.04127785    Debye
 --------------------------------------------------- 
  --- ci properties for state 3 of  DRT 1 ----
starting exptvl.x -m 200000  at Tue May 17 05:43:30 EDT 2022

 -------------------- exptvl.x ------------------------
  === dipole moment === 
                     X               Y               Z   
   orign x       0.00000000      0.00000000      0.00000000
   orign y       0.00000000      0.00000000      0.00000000
   orign z       0.00000000      0.00000000      0.00000000
   nuclear      -0.54361444     -0.16427821      0.32755097
   electronic   -0.19802912     -0.16384070     -0.27510342
   total        -0.74164356     -0.32811891      0.05244755
   total Dipole moment =   2.06562726    Debye
 --------------------------------------------------- 
  --- ci properties for state 4 of  DRT 1 ----
starting exptvl.x -m 200000  at Tue May 17 05:43:31 EDT 2022

 -------------------- exptvl.x ------------------------
  === dipole moment === 
                     X               Y               Z   
   orign x       0.00000000      0.00000000      0.00000000
   orign y       0.00000000      0.00000000      0.00000000
   orign z       0.00000000      0.00000000      0.00000000
   nuclear      -0.54361444     -0.16427821      0.32755097
   electronic    5.14012376     -0.24200815     -0.28214664
   total         4.59650932     -0.40628636      0.04540433
   total Dipole moment =  11.72929125    Debye
 --------------------------------------------------- 
  --- ci properties for state 1 of  DRT 2 ----
starting exptvl.x -m 200000  at Tue May 17 05:43:31 EDT 2022

 -------------------- exptvl.x ------------------------
  === dipole moment === 
                     X               Y               Z   
   orign x       0.00000000      0.00000000      0.00000000
   orign y       0.00000000      0.00000000      0.00000000
   orign z       0.00000000      0.00000000      0.00000000
   nuclear      -0.54361444     -0.16427821      0.32755097
   electronic    0.02225832     -0.17283154     -0.29251505
   total        -0.52135612     -0.33710975      0.03503592
   total Dipole moment =   1.58055652    Debye
 --------------------------------------------------- 
  --- ci properties for state 2 of  DRT 2 ----
starting exptvl.x -m 200000  at Tue May 17 05:43:31 EDT 2022

 -------------------- exptvl.x ------------------------
  === dipole moment === 
                     X               Y               Z   
   orign x       0.00000000      0.00000000      0.00000000
   orign y       0.00000000      0.00000000      0.00000000
   orign z       0.00000000      0.00000000      0.00000000
   nuclear      -0.54361444     -0.16427821      0.32755097
   electronic   -0.42807769     -0.16043876     -0.27280460
   total        -0.97169213     -0.32471697      0.05474637
   total Dipole moment =   2.60776990    Debye
 --------------------------------------------------- 
  --- ci properties for state 3 of  DRT 2 ----
starting exptvl.x -m 200000  at Tue May 17 05:43:31 EDT 2022

 -------------------- exptvl.x ------------------------
  === dipole moment === 
                     X               Y               Z   
   orign x       0.00000000      0.00000000      0.00000000
   orign y       0.00000000      0.00000000      0.00000000
   orign z       0.00000000      0.00000000      0.00000000
   nuclear      -0.54361444     -0.16427821      0.32755097
   electronic    4.03475723     -0.13256479     -0.29869389
   total         3.49114279     -0.29684300      0.02885708
   total Dipole moment =   8.90592960    Debye
 --------------------------------------------------- 
  --- ci properties for state 4 of  DRT 2 ----
starting exptvl.x -m 200000  at Tue May 17 05:43:32 EDT 2022

 -------------------- exptvl.x ------------------------
  === dipole moment === 
                     X               Y               Z   
   orign x       0.00000000      0.00000000      0.00000000
   orign y       0.00000000      0.00000000      0.00000000
   orign z       0.00000000      0.00000000      0.00000000
   nuclear      -0.54361444     -0.16427821      0.32755097
   electronic   -0.13251036     -0.17079963     -0.28570286
   total        -0.67612480     -0.33507784      0.04184811
   total Dipole moment =   1.92095222    Debye
 --------------------------------------------------- 
 starting mo_convert.x at Tue May 17 05:43:32 EDT 2022

 -------------------- mo_convert.x ------------------------
 --------------------------------------------------- 
 starting pymolcas molcas.input.molden > molcas.output.molden at Tue May 17 05:43:33 EDT 2022

Generating link ln -s ./molcas.OrdInt ORDINT 
 -------------------- molden ------------------------
 --------------------------------------------------- 
 starting mo_convert.x at Tue May 17 05:44:02 EDT 2022

 -------------------- mo_convert.x ------------------------
 --------------------------------------------------- 
 starting pymolcas molcas.input.molden > molcas.output.molden at Tue May 17 05:44:02 EDT 2022

Generating link ln -s ./molcas.OrdInt ORDINT 
 -------------------- molden ------------------------
 --------------------------------------------------- 
 starting mo_convert.x at Tue May 17 05:44:25 EDT 2022

 -------------------- mo_convert.x ------------------------
 --------------------------------------------------- 
 starting pymolcas molcas.input.molden > molcas.output.molden at Tue May 17 05:44:25 EDT 2022

Generating link ln -s ./molcas.OrdInt ORDINT 
 -------------------- molden ------------------------
 --------------------------------------------------- 
 starting mo_convert.x at Tue May 17 05:44:46 EDT 2022

 -------------------- mo_convert.x ------------------------
 --------------------------------------------------- 
 starting pymolcas molcas.input.molden > molcas.output.molden at Tue May 17 05:44:47 EDT 2022

Generating link ln -s ./molcas.OrdInt ORDINT 
 -------------------- molden ------------------------
 --------------------------------------------------- 
 starting mo_convert.x at Tue May 17 05:45:07 EDT 2022

 -------------------- mo_convert.x ------------------------
 --------------------------------------------------- 
 starting pymolcas molcas.input.molden > molcas.output.molden at Tue May 17 05:45:07 EDT 2022

Generating link ln -s ./molcas.OrdInt ORDINT 
 -------------------- molden ------------------------
 --------------------------------------------------- 
 starting mo_convert.x at Tue May 17 05:45:29 EDT 2022

 -------------------- mo_convert.x ------------------------
 --------------------------------------------------- 
 starting pymolcas molcas.input.molden > molcas.output.molden at Tue May 17 05:45:29 EDT 2022

Generating link ln -s ./molcas.OrdInt ORDINT 
 -------------------- molden ------------------------
 --------------------------------------------------- 
 starting mo_convert.x at Tue May 17 05:45:49 EDT 2022

 -------------------- mo_convert.x ------------------------
 --------------------------------------------------- 
 starting pymolcas molcas.input.molden > molcas.output.molden at Tue May 17 05:45:50 EDT 2022

Generating link ln -s ./molcas.OrdInt ORDINT 
 -------------------- molden ------------------------
 --------------------------------------------------- 
 starting mo_convert.x at Tue May 17 05:46:10 EDT 2022

 -------------------- mo_convert.x ------------------------
 --------------------------------------------------- 
 starting pymolcas molcas.input.molden > molcas.output.molden at Tue May 17 05:46:10 EDT 2022

Generating link ln -s ./molcas.OrdInt ORDINT 
 -------------------- molden ------------------------
 --------------------------------------------------- 
 starting mo_convert.x at Tue May 17 05:46:32 EDT 2022

 -------------------- mo_convert.x ------------------------
 --------------------------------------------------- 
 starting pymolcas molcas.input.molden > molcas.output.molden at Tue May 17 05:46:32 EDT 2022

Generating link ln -s ./molcas.OrdInt ORDINT 
 -------------------- molden ------------------------
 --------------------------------------------------- 
 starting mo_convert.x at Tue May 17 05:46:52 EDT 2022

 -------------------- mo_convert.x ------------------------
 --------------------------------------------------- 
 starting pymolcas molcas.input.molden > molcas.output.molden at Tue May 17 05:46:53 EDT 2022

Generating link ln -s ./molcas.OrdInt ORDINT 
 -------------------- molden ------------------------
 --------------------------------------------------- 
 starting mo_convert.x at Tue May 17 05:47:13 EDT 2022

 -------------------- mo_convert.x ------------------------
 --------------------------------------------------- 
 starting pymolcas molcas.input.molden > molcas.output.molden at Tue May 17 05:47:14 EDT 2022

Generating link ln -s ./molcas.OrdInt ORDINT 
 -------------------- molden ------------------------
 --------------------------------------------------- 
 starting mo_convert.x at Tue May 17 05:47:35 EDT 2022

 -------------------- mo_convert.x ------------------------
 --------------------------------------------------- 
 starting pymolcas molcas.input.molden > molcas.output.molden at Tue May 17 05:47:35 EDT 2022

Generating link ln -s ./molcas.OrdInt ORDINT 
 -------------------- molden ------------------------
 --------------------------------------------------- 
 starting mo_convert.x at Tue May 17 05:47:56 EDT 2022

 -------------------- mo_convert.x ------------------------
 --------------------------------------------------- 
 starting pymolcas molcas.input.molden > molcas.output.molden at Tue May 17 05:47:56 EDT 2022

Generating link ln -s ./molcas.OrdInt ORDINT 
 -------------------- molden ------------------------
 --------------------------------------------------- 
 starting mo_convert.x at Tue May 17 05:48:17 EDT 2022

 -------------------- mo_convert.x ------------------------
 --------------------------------------------------- 
 starting pymolcas molcas.input.molden > molcas.output.molden at Tue May 17 05:48:18 EDT 2022

Generating link ln -s ./molcas.OrdInt ORDINT 
 -------------------- molden ------------------------
 --------------------------------------------------- 
 

 +++++++++++ STARTING GRADIENTS AND NAD. COUPLINGS CALCULATION +++++++++++ 

 Using new transition density code ... 
INFO: this is a frozen core gradient calculation
starting cidrt.x  -m 200000 < cidrtin.cigrd > cidrtls.cigrd at Tue May 17 05:48:38 EDT 2022

 -------------------- cidrt.x ------------------------
 total number of orbitals            :   246
 number of frozen core orbitals      :    18
 number of frozen virtual orbitals   :     0
 number of internal orbitals         :    14
 number of external orbitals         :   214
 spatial symmetry:   a  
 
 total number of configurations  282461366
 number of reference configurations  1666
 --------------------------------------------------- 
 starting tran.x -m 200000  at Tue May 17 05:48:45 EDT 2022

 -------------------- tran.x ------------------------
 --------------------------------------------------- 
 ---- Computing 8 gradient(s)  ----

 --- Computing gradient for DRT:1, State; 1

starting cigrd.x -m 200000 at Tue May 17 05:57:08 EDT 2022

 -------------------- cigrd.x ------------------------
 Total energy (ciudg) :  -286.044426666428 
  Effective energy     :  -286.044426682793 
  Delta E              :     0.000000016365 
  --------------------------------------------------- 
 starting tran.x -m 200000  at Tue May 17 06:06:45 EDT 2022

 -------------------- tran.x ------------------------
 --------------------------------------------------- 
 starting pymolcas molcas.input.alaska > molcas.output.alaska  at Tue May 17 06:13:56 EDT 2022

Generating link ln -s ./molcas.OrdInt ORDINT 
 -------------------- alaska ------------------------
 --------------------------------------------------- 
 cartesian gradient by alaska (MOLCAS)

 === Gradient of DRT 1, state 1 === 
  -0.172181D+00  -0.140417D+00  -0.317386D+00
  -0.935332D-05   0.353523D-05  -0.368455D-04
   0.176899D-04  -0.419253D-05   0.132034D-04
  -0.737631D-05   0.482960D-05   0.141090D-04
   0.381840D-04  -0.695408D-05  -0.667771D-05
   0.147962D-04  -0.663974D-06   0.237537D-04
  -0.588401D-04   0.148252D-04   0.180463D-04
   0.172144D+00   0.140425D+00   0.317386D+00
   0.410206D-04  -0.564953D-05   0.879587D-05
  -0.180397D-05  -0.118439D-05   0.199035D-05
  -0.227041D-06  -0.493463D-05  -0.929345D-06
   0.215297D-05   0.136445D-05  -0.108746D-04
  -0.305318D-05  -0.185497D-05  -0.178354D-04
   0.342252D-05  -0.673772D-05  -0.629223D-05
===================================
 --- Computing gradient for DRT:1, State; 2

starting cigrd.x -m 200000 at Tue May 17 06:15:14 EDT 2022

 -------------------- cigrd.x ------------------------
 Total energy (ciudg) :  -285.863041490731 
  Effective energy     :  -285.863041506925 
  Delta E              :     0.000000016194 
  --------------------------------------------------- 
 starting tran.x -m 200000  at Tue May 17 06:24:58 EDT 2022

 -------------------- tran.x ------------------------
 --------------------------------------------------- 
 starting pymolcas molcas.input.alaska > molcas.output.alaska  at Tue May 17 06:32:06 EDT 2022

Generating link ln -s ./molcas.OrdInt ORDINT 
 -------------------- alaska ------------------------
 --------------------------------------------------- 
 cartesian gradient by alaska (MOLCAS)

 === Gradient of DRT 1, state 2 === 
  -0.247825D+00  -0.108986D+00  -0.321308D+00
   0.608412D-01  -0.896511D-02   0.334795D-02
  -0.247305D-01  -0.231387D-02   0.285245D-01
  -0.242042D-01  -0.149950D-02  -0.291698D-01
   0.200388D-01   0.535051D-03   0.141084D-01
   0.210746D-01  -0.120491D-03  -0.143764D-01
  -0.212989D-02   0.415947D-03   0.611663D-03
   0.184074D+00   0.128372D+00   0.332784D+00
   0.111496D-01  -0.752432D-02  -0.141983D-01
  -0.922552D-03   0.402717D-03  -0.304679D-02
  -0.102558D-02  -0.412889D-03   0.292948D-02
   0.151507D-02   0.562966D-05  -0.125449D-02
   0.158605D-02   0.182872D-03   0.106264D-02
   0.557615D-03  -0.915222D-04  -0.149334D-04
===================================
 --- Computing gradient for DRT:1, State; 3

starting cigrd.x -m 200000 at Tue May 17 06:33:26 EDT 2022

 -------------------- cigrd.x ------------------------
 Total energy (ciudg) :  -285.856901630211 
  Effective energy     :  -285.856901647652 
  Delta E              :     0.000000017441 
  --------------------------------------------------- 
 starting tran.x -m 200000  at Tue May 17 06:43:47 EDT 2022

 -------------------- tran.x ------------------------
 --------------------------------------------------- 
 starting pymolcas molcas.input.alaska > molcas.output.alaska  at Tue May 17 06:51:00 EDT 2022

Generating link ln -s ./molcas.OrdInt ORDINT 
 -------------------- alaska ------------------------
 --------------------------------------------------- 
 cartesian gradient by alaska (MOLCAS)

 === Gradient of DRT 1, state 3 === 
  -0.189232D+00  -0.132883D+00  -0.319303D+00
   0.264995D-01  -0.634618D-03   0.108119D-02
   0.289716D-01   0.507775D-03   0.302188D-01
   0.275549D-01  -0.196344D-02  -0.313635D-01
  -0.267520D-01  -0.822169D-03   0.283199D-01
  -0.251997D-01   0.868143D-03  -0.288008D-01
  -0.161604D-01   0.391653D-03   0.800199D-03
   0.173483D+00   0.137193D+00   0.320895D+00
   0.390350D-03  -0.211230D-02  -0.174538D-02
  -0.299710D-03  -0.434181D-03  -0.103649D-02
  -0.316425D-03  -0.115228D-03   0.987298D-03
   0.350788D-03   0.954521D-04  -0.128818D-02
   0.353887D-03   0.128237D-04   0.123890D-02
   0.356306D-03  -0.104094D-03  -0.321304D-05
===================================
 --- Computing gradient for DRT:1, State; 4

starting cigrd.x -m 200000 at Tue May 17 06:52:22 EDT 2022

 -------------------- cigrd.x ------------------------
 Total energy (ciudg) :  -285.808092656431 
  Effective energy     :  -285.808092670789 
  Delta E              :     0.000000014358 
  --------------------------------------------------- 
 starting tran.x -m 200000  at Tue May 17 07:02:54 EDT 2022

 -------------------- tran.x ------------------------
 --------------------------------------------------- 
 starting pymolcas molcas.input.alaska > molcas.output.alaska  at Tue May 17 07:10:04 EDT 2022

Generating link ln -s ./molcas.OrdInt ORDINT 
 -------------------- alaska ------------------------
 --------------------------------------------------- 
 cartesian gradient by alaska (MOLCAS)

 === Gradient of DRT 1, state 4 === 
  -0.213627D+00  -0.129503D+00  -0.320388D+00
   0.468864D-01  -0.212329D-02   0.249925D-02
   0.391188D-01  -0.818036D-03  -0.216093D-02
   0.396511D-01  -0.820869D-03   0.164110D-02
  -0.443105D-01  -0.703048D-04  -0.109531D-01
  -0.443328D-01  -0.335801D-03   0.114908D-01
  -0.738568D-02   0.678170D-04  -0.344037D-03
   0.177331D+00   0.136270D+00   0.322411D+00
   0.495265D-02  -0.290677D-02  -0.391029D-02
  -0.756370D-03   0.171140D-03  -0.318355D-02
  -0.858628D-03   0.494816D-04   0.306272D-02
   0.703798D-03   0.108283D-04  -0.131211D-02
   0.726667D-03   0.801375D-05   0.115449D-02
   0.190080D-02   0.463609D-06  -0.756045D-05
===================================
 --- Computing gradient for DRT:2, State; 1

starting cigrd.x -m 200000 at Tue May 17 07:11:24 EDT 2022

 -------------------- cigrd.x ------------------------
 Total energy (ciudg) :  -285.887989342985 
  Effective energy     :  -285.887989358905 
  Delta E              :     0.000000015920 
  --------------------------------------------------- 
 starting tran.x -m 200000  at Tue May 17 07:24:15 EDT 2022

 -------------------- tran.x ------------------------
 --------------------------------------------------- 
 starting pymolcas molcas.input.alaska > molcas.output.alaska  at Tue May 17 07:31:35 EDT 2022

Generating link ln -s ./molcas.OrdInt ORDINT 
 -------------------- alaska ------------------------
 --------------------------------------------------- 
 cartesian gradient by alaska (MOLCAS)

 === Gradient of DRT 2, state 1 === 
  -0.171438D+00  -0.141527D+00  -0.317574D+00
   0.351707D-01   0.425096D-02  -0.210280D-02
  -0.109270D-01  -0.159071D-02   0.349392D-01
  -0.108623D-01  -0.189793D-02  -0.329826D-01
   0.978214D-02  -0.486361D-03   0.374510D-01
   0.118127D-01  -0.949301D-04  -0.401056D-01
  -0.374839D-01   0.770875D-03   0.260052D-02
   0.172974D+00   0.140285D+00   0.317618D+00
   0.576085D-03   0.304295D-03   0.147539D-03
  -0.988781D-03   0.386616D-04  -0.228181D-04
  -0.964548D-03  -0.127487D-03   0.145985D-04
   0.679578D-03   0.638362D-04  -0.594301D-03
   0.720480D-03   0.137112D-03   0.573198D-03
   0.948279D-03  -0.126395D-03   0.375376D-04
===================================
 --- Computing gradient for DRT:2, State; 2

starting cigrd.x -m 200000 at Tue May 17 07:32:55 EDT 2022

 -------------------- cigrd.x ------------------------
 Total energy (ciudg) :  -285.871153957881 
  Effective energy     :  -285.871153975457 
  Delta E              :     0.000000017576 
  --------------------------------------------------- 
 starting tran.x -m 200000  at Tue May 17 07:43:28 EDT 2022

 -------------------- tran.x ------------------------
 --------------------------------------------------- 
 starting pymolcas molcas.input.alaska > molcas.output.alaska  at Tue May 17 07:50:34 EDT 2022

Generating link ln -s ./molcas.OrdInt ORDINT 
 -------------------- alaska ------------------------
 --------------------------------------------------- 
 cartesian gradient by alaska (MOLCAS)

 === Gradient of DRT 2, state 2 === 
  -0.207065D+00  -0.126194D+00  -0.320462D+00
   0.323600D-01  -0.424053D-02   0.323669D-02
   0.313146D-01  -0.495671D-03   0.282429D-01
   0.303786D-01   0.439730D-03  -0.313374D-01
  -0.334808D-01   0.451007D-03   0.256679D-01
  -0.338811D-01  -0.113774D-03  -0.239980D-01
   0.523966D-02   0.209153D-03  -0.112272D-02
   0.174013D+00   0.134554D+00   0.323478D+00
   0.374095D-03  -0.381751D-02  -0.358183D-02
   0.234953D-03   0.848544D-04  -0.160577D-02
   0.189075D-03  -0.696715D-03   0.160431D-02
   0.407526D-03  -0.111632D-03  -0.172655D-02
   0.378907D-03   0.430598D-04   0.165283D-02
  -0.462790D-03  -0.111452D-03  -0.485331D-04
===================================
 --- Computing gradient for DRT:2, State; 3

starting cigrd.x -m 200000 at Tue May 17 07:51:55 EDT 2022

 -------------------- cigrd.x ------------------------
 Total energy (ciudg) :  -285.864961031587 
  Effective energy     :  -285.864961047856 
  Delta E              :     0.000000016269 
  --------------------------------------------------- 
 starting tran.x -m 200000  at Tue May 17 08:02:16 EDT 2022

 -------------------- tran.x ------------------------
 --------------------------------------------------- 
 starting pymolcas molcas.input.alaska > molcas.output.alaska  at Tue May 17 08:09:11 EDT 2022

Generating link ln -s ./molcas.OrdInt ORDINT 
 -------------------- alaska ------------------------
 --------------------------------------------------- 
 cartesian gradient by alaska (MOLCAS)

 === Gradient of DRT 2, state 3 === 
  -0.247855D+00  -0.109062D+00  -0.320172D+00
   0.590574D-01  -0.101796D-01   0.286430D-02
  -0.236651D-01  -0.200320D-03   0.282019D-01
  -0.229488D-01  -0.301602D-02  -0.284212D-01
   0.186411D-01  -0.377026D-03   0.134404D-01
   0.197851D-01   0.125587D-02  -0.137537D-01
  -0.140972D-02   0.171066D-03   0.750758D-03
   0.184376D+00   0.128676D+00   0.333492D+00
   0.123872D-01  -0.713171D-02  -0.160906D-01
  -0.923618D-03  -0.300151D-03  -0.308785D-02
  -0.101721D-02   0.113782D-04   0.297714D-02
   0.148770D-02   0.183711D-03  -0.123511D-02
   0.155100D-02   0.113295D-03   0.104402D-02
   0.533592D-03  -0.144763D-03  -0.102968D-04
===================================
 --- Computing gradient for DRT:2, State; 4

starting cigrd.x -m 200000 at Tue May 17 08:10:30 EDT 2022

 -------------------- cigrd.x ------------------------
 Total energy (ciudg) :  -285.860315337511 
  Effective energy     :  -285.860315353740 
[...]
  -2.876230E-02   8.729259E-02  -6.378717E+00
  -7.880669E-01  -1.104649E-01   2.874002E+00
   9.560631E-01   5.174197E-02   2.929682E+00
  -1.815646E+00   2.161837E-02  -2.775399E+00
   1.658201E+00  -5.712908E-02  -2.739497E+00
   4.058868E-02   3.811721E-03   5.317863E+00
   2.660542E-02   6.232933E-02  -7.915887E-03
  -3.837099E-02  -1.191821E-01   3.777623E-02
  -3.780826E-02   1.484510E-03  -1.164998E-02
   4.068448E-02   1.693054E-02  -8.981759E-03
  -3.303656E-02  -2.125685E-03   1.853246E-02
   3.172421E-02   8.835990E-03   2.142774E-02
  -7.651325E-04   3.172594E-03   1.061705E-01
===================================

 Norm of the nonadiabatic coupling vector: 
 |h(drt2.state1,drt2.state2)|= 10.4428357192642 

 Cross-check of the non-adiabatic coupling term:
  DeltaE= -0.0168353850999665

  <L>*dE form CIGRD   :   -0.0001095984    -0.0006435158    -0.0010003754
  <L>*dE form NADCOUPL:   -0.0002668034     0.0176667543    -0.0001389729
 -------------------------------------------------------------------------
  Difference          :    0.0001572050    -0.0183102700    -0.0008614025

 NOTE: This test is meaningless at a point of conical intersection!


 -------- NAD. COUPLING for DRT:2 STATE:1 AND DRT:2 STATE:3 --------
opening file =ciudgls.drt2.sp
opening file =ciudgls.drt2.sp
extracted: energy1= -285.8879893428   energy2=-285.8649610314   deltae=-0.023028311399969
starting cigrd.x -m 200000 at Tue May 17 10:53:25 EDT 2022

 -------------------- cigrd.x ------------------------
 Total energy (ciudg) :     0.000000001394 
  Effective energy     :     0.000000006264 
  Delta E              :    -0.000000004870 
  --------------------------------------------------- 
 starting tran.x -m 200000  at Tue May 17 11:09:16 EDT 2022

 -------------------- tran.x ------------------------
 --------------------------------------------------- 
  adding keyword NONUC to alaska input
starting pymolcas molcas.input.alaska > molcas.output.alaska  at Tue May 17 11:15:54 EDT 2022

Generating link ln -s ./molcas.OrdInt ORDINT 
 -------------------- alaska ------------------------
 --------------------------------------------------- 
 cartesian gradient by alaska (MOLCAS)

 Calculating the Dx(r,s) term of D[CSF] nonadiabatic coupling term.
dxcalc: INPUT LINE SEPARATOR 
 
starting tran.x -m 200000  at Tue May 17 11:16:58 EDT 2022

 -------------------- tran.x ------------------------
 --------------------------------------------------- 
 starting tdmrunfile.x > tdmrunfilels at Tue May 17 11:16:58 EDT 2022

 -------------------- tdmrunfile.x ------------------------
 --------------------------------------------------- 
 starting pymolcas molcas.input.alaska > molcas.output.alaska  at Tue May 17 11:16:58 EDT 2022

Generating link ln -s ./molcas.OrdInt ORDINT 
 -------------------- alaska ------------------------
 --------------------------------------------------- 
 
 === Non-adiabatic coupling for DRT 2 STATE 1 and DRT 2 STATE 3 === 
   1.120068E-01  -1.671460E-01  -3.170661E-02
   8.229307E-02   9.130693E-01   2.917459E-01
  -1.523288E-01  -3.175038E-01  -7.848329E-02
  -2.504727E-01  -2.411283E-01  -1.973971E-01
   2.784412E-01  -2.257067E-01   1.730875E-01
   1.267500E-01  -2.192071E-01   8.048155E-02
  -4.593747E-02   2.613190E-01  -2.491665E-01
  -6.023191E-02  -2.699764E-02  -1.447841E-01
  -9.490840E-02  -1.247679E-01   1.688049E-01
  -3.306605E-04   3.879206E-02  -8.847779E-04
  -4.822959E-03   3.310550E-02  -2.177169E-03
   5.977100E-03   1.658749E-02  -5.626038E-04
   2.693933E-03   8.010160E-03  -1.249665E-03
   1.879786E-03   2.625840E-02  -5.081637E-03
===================================

 Norm of the nonadiabatic coupling vector: 
 |h(drt2.state1,drt2.state3)|= 1.30411644172449 

 Cross-check of the non-adiabatic coupling term:
  DeltaE= -0.023028311399969

  <L>*dE form CIGRD   :   -0.0001499143    -0.0008802342    -0.0013683653
  <L>*dE form NADCOUPL:   -0.0002539891    -0.0017354219    -0.0028897723
 -------------------------------------------------------------------------
  Difference          :    0.0001040748     0.0008551878     0.0015214070

 NOTE: This test is meaningless at a point of conical intersection!


 -------- NAD. COUPLING for DRT:2 STATE:1 AND DRT:2 STATE:4 --------
opening file =ciudgls.drt2.sp
opening file =ciudgls.drt2.sp
extracted: energy1= -285.8879893428   energy2=-285.8603153373   deltae=-0.0276740054999891
starting cigrd.x -m 200000 at Tue May 17 11:18:05 EDT 2022

 -------------------- cigrd.x ------------------------
 Total energy (ciudg) :     0.000000000419 
  Effective energy     :     0.000000006815 
  Delta E              :    -0.000000006396 
  --------------------------------------------------- 
 starting tran.x -m 200000  at Tue May 17 11:28:39 EDT 2022

 -------------------- tran.x ------------------------
 --------------------------------------------------- 
  adding keyword NONUC to alaska input
starting pymolcas molcas.input.alaska > molcas.output.alaska  at Tue May 17 11:35:20 EDT 2022

Generating link ln -s ./molcas.OrdInt ORDINT 
 -------------------- alaska ------------------------
 --------------------------------------------------- 
 cartesian gradient by alaska (MOLCAS)

 Calculating the Dx(r,s) term of D[CSF] nonadiabatic coupling term.
dxcalc: INPUT LINE SEPARATOR 
 
starting tran.x -m 200000  at Tue May 17 11:36:32 EDT 2022

 -------------------- tran.x ------------------------
 --------------------------------------------------- 
 starting tdmrunfile.x > tdmrunfilels at Tue May 17 11:36:32 EDT 2022

 -------------------- tdmrunfile.x ------------------------
 --------------------------------------------------- 
 starting pymolcas molcas.input.alaska > molcas.output.alaska  at Tue May 17 11:36:32 EDT 2022

Generating link ln -s ./molcas.OrdInt ORDINT 
 -------------------- alaska ------------------------
 --------------------------------------------------- 
 
 === Non-adiabatic coupling for DRT 2 STATE 1 and DRT 2 STATE 4 === 
  -7.461206E-02   4.678439E-02  -2.234467E-04
   9.541293E-01   3.782727E-02  -3.869702E-02
  -2.872475E+00  -3.145855E-02   9.627364E-01
  -2.855481E+00  -4.562158E-02  -9.162586E-01
   2.906182E+00  -1.794224E-03   9.608674E-01
   2.922715E+00   9.548626E-03  -1.018200E+00
  -1.089169E+00   8.930317E-03   4.887585E-02
   4.207682E-02  -2.623493E-02   4.416750E-02
   4.295035E-02   2.877740E-04  -4.481039E-02
  -3.210966E-02   4.288385E-03   3.850529E-02
  -3.131615E-02   3.362659E-04  -3.871319E-02
   3.287454E-02   2.114500E-04   2.994432E-02
   3.398012E-02   3.601305E-03  -2.932904E-02
   1.737945E-02  -4.414800E-03   8.894675E-04
===================================

 Norm of the nonadiabatic coupling vector: 
 |h(drt2.state1,drt2.state4)|= 6.26498189327354 

 Cross-check of the non-adiabatic coupling term:
  DeltaE= -0.0276740054999891

  <L>*dE form CIGRD   :   -0.0001801578    -0.0010578112    -0.0016444171
  <L>*dE form NADCOUPL:    0.0000267576     0.0002423091     0.0002978827
 -------------------------------------------------------------------------
  Difference          :   -0.0002069153    -0.0013001203    -0.0019422998

 NOTE: This test is meaningless at a point of conical intersection!


 -------- NAD. COUPLING for DRT:2 STATE:2 AND DRT:2 STATE:3 --------
opening file =ciudgls.drt2.sp
opening file =ciudgls.drt2.sp
extracted: energy1= -285.8711539577   energy2=-285.8649610314   deltae=-0.00619292630000245
starting cigrd.x -m 200000 at Tue May 17 11:37:40 EDT 2022

 -------------------- cigrd.x ------------------------
 Total energy (ciudg) :    -0.000000000550 
  Effective energy     :     0.000000003544 
  Delta E              :    -0.000000004094 
  --------------------------------------------------- 
 starting tran.x -m 200000  at Tue May 17 11:47:36 EDT 2022

 -------------------- tran.x ------------------------
 --------------------------------------------------- 
  adding keyword NONUC to alaska input
starting pymolcas molcas.input.alaska > molcas.output.alaska  at Tue May 17 11:54:12 EDT 2022

Generating link ln -s ./molcas.OrdInt ORDINT 
 -------------------- alaska ------------------------
 --------------------------------------------------- 
 cartesian gradient by alaska (MOLCAS)

 Calculating the Dx(r,s) term of D[CSF] nonadiabatic coupling term.
dxcalc: INPUT LINE SEPARATOR 
 
starting tran.x -m 200000  at Tue May 17 11:55:16 EDT 2022

 -------------------- tran.x ------------------------
 --------------------------------------------------- 
 starting tdmrunfile.x > tdmrunfilels at Tue May 17 11:55:16 EDT 2022

 -------------------- tdmrunfile.x ------------------------
 --------------------------------------------------- 
 starting pymolcas molcas.input.alaska > molcas.output.alaska  at Tue May 17 11:55:16 EDT 2022

Generating link ln -s ./molcas.OrdInt ORDINT 
 -------------------- alaska ------------------------
 --------------------------------------------------- 
 
 === Non-adiabatic coupling for DRT 2 STATE 2 and DRT 2 STATE 3 === 
   5.580868E-01   3.115815E-02  -2.090057E-01
  -3.178338E-01   1.184565E-01  -6.779904E-01
   4.960666E-01   1.042020E+00   3.190419E-01
   6.003363E-01  -1.228293E+00   2.770838E-01
  -6.444642E-01  -8.012360E-01  -6.651017E-03
  -4.500779E-01   8.293728E-01  -2.566251E-01
   5.350881E-02  -1.609601E-02   2.548801E-01
  -1.302054E-01   2.151041E-01  -3.938281E-02
  -1.581554E-01  -2.583771E-01   3.679640E-01
   8.826650E-03  -3.200331E-01  -1.261700E-03
   1.259367E-02   3.216946E-01  -3.491649E-02
  -6.791804E-03   1.195864E-01  -4.232352E-03
  -1.434599E-02  -5.667581E-02   9.211452E-03
  -8.685263E-03   2.390204E-03   3.183287E-03
===================================

 Norm of the nonadiabatic coupling vector: 
 |h(drt2.state2,drt2.state3)|= 2.62857213609774 

 Cross-check of the non-adiabatic coupling term:
  DeltaE= -0.00619292630000245

  <L>*dE form CIGRD   :   -0.0000403160    -0.0002367184    -0.0003679899
  <L>*dE form NADCOUPL:   -0.0006276536     0.0000344959    -0.0000281943
 -------------------------------------------------------------------------
  Difference          :    0.0005873377    -0.0002712144    -0.0003397956

 NOTE: This test is meaningless at a point of conical intersection!


 -------- NAD. COUPLING for DRT:2 STATE:2 AND DRT:2 STATE:4 --------
opening file =ciudgls.drt2.sp
opening file =ciudgls.drt2.sp
extracted: energy1= -285.8711539577   energy2=-285.8603153373   deltae=-0.0108386204000226
starting cigrd.x -m 200000 at Tue May 17 11:56:20 EDT 2022

 -------------------- cigrd.x ------------------------
 Total energy (ciudg) :     0.000000000358 
  Effective energy     :     0.000000008443 
  Delta E              :    -0.000000008085 
  --------------------------------------------------- 
 starting tran.x -m 200000  at Tue May 17 12:08:12 EDT 2022

 -------------------- tran.x ------------------------
 --------------------------------------------------- 
  adding keyword NONUC to alaska input
starting pymolcas molcas.input.alaska > molcas.output.alaska  at Tue May 17 12:14:55 EDT 2022

Generating link ln -s ./molcas.OrdInt ORDINT 
 -------------------- alaska ------------------------
 --------------------------------------------------- 
 cartesian gradient by alaska (MOLCAS)

 Calculating the Dx(r,s) term of D[CSF] nonadiabatic coupling term.
dxcalc: INPUT LINE SEPARATOR 
 
starting tran.x -m 200000  at Tue May 17 12:16:03 EDT 2022

 -------------------- tran.x ------------------------
 --------------------------------------------------- 
 starting tdmrunfile.x > tdmrunfilels at Tue May 17 12:16:04 EDT 2022

 -------------------- tdmrunfile.x ------------------------
 --------------------------------------------------- 
 starting pymolcas molcas.input.alaska > molcas.output.alaska  at Tue May 17 12:16:04 EDT 2022

Generating link ln -s ./molcas.OrdInt ORDINT 
 -------------------- alaska ------------------------
 --------------------------------------------------- 
 
 === Non-adiabatic coupling for DRT 2 STATE 2 and DRT 2 STATE 4 === 
  -8.863556E-03  -9.307885E-04   3.186185E-01
   4.409201E-02  -4.991336E-02  -2.288314E+00
  -4.894217E-01  -2.351179E-02   4.543111E-01
   3.177726E-01   6.272837E-02   4.103197E-01
  -9.833012E-01   4.105042E-02  -5.201636E-02
   1.144155E+00  -7.940144E-03  -5.656672E-02
  -3.934844E-02  -2.017986E-02   1.280930E+00
   4.190432E-02  -2.274366E-03  -1.063213E-02
  -2.723364E-02   1.589117E-02  -4.776934E-02
   2.409712E-02   7.016522E-03   3.732542E-02
  -2.679590E-02  -1.522902E-02   3.487386E-02
   4.094889E-02  -6.724341E-03  -3.190709E-02
  -3.947675E-02   3.083515E-03  -3.564641E-02
   1.531875E-03  -3.990744E-03  -1.426024E-02
===================================

 Norm of the nonadiabatic coupling vector: 
 |h(drt2.state2,drt2.state4)|= 3.16285929170538 

 Cross-check of the non-adiabatic coupling term:
  DeltaE= -0.0108386204000226

  <L>*dE form CIGRD   :   -0.0000705594    -0.0004142954    -0.0006440417
  <L>*dE form NADCOUPL:    0.0000591243     0.0048782667    -0.0000441863
 -------------------------------------------------------------------------
  Difference          :   -0.0001296837    -0.0052925622    -0.0005998554

 NOTE: This test is meaningless at a point of conical intersection!


 -------- NAD. COUPLING for DRT:2 STATE:3 AND DRT:2 STATE:4 --------
opening file =ciudgls.drt2.sp
opening file =ciudgls.drt2.sp
extracted: energy1= -285.8649610314   energy2=-285.8603153373   deltae=-0.00464569410002014
starting cigrd.x -m 200000 at Tue May 17 12:17:14 EDT 2022

 -------------------- cigrd.x ------------------------
 Total energy (ciudg) :     0.000000001179 
  Effective energy     :     0.000000003272 
  Delta E              :    -0.000000002093 
  --------------------------------------------------- 
 starting tran.x -m 200000  at Tue May 17 12:27:29 EDT 2022

 -------------------- tran.x ------------------------
 --------------------------------------------------- 
  adding keyword NONUC to alaska input
starting pymolcas molcas.input.alaska > molcas.output.alaska  at Tue May 17 12:33:59 EDT 2022

Generating link ln -s ./molcas.OrdInt ORDINT 
 -------------------- alaska ------------------------
 --------------------------------------------------- 
 cartesian gradient by alaska (MOLCAS)

 Calculating the Dx(r,s) term of D[CSF] nonadiabatic coupling term.
dxcalc: INPUT LINE SEPARATOR 
 
starting tran.x -m 200000  at Tue May 17 12:35:03 EDT 2022

 -------------------- tran.x ------------------------
 --------------------------------------------------- 
 starting tdmrunfile.x > tdmrunfilels at Tue May 17 12:35:03 EDT 2022

 -------------------- tdmrunfile.x ------------------------
 --------------------------------------------------- 
 starting pymolcas molcas.input.alaska > molcas.output.alaska  at Tue May 17 12:35:03 EDT 2022

Generating link ln -s ./molcas.OrdInt ORDINT 
 -------------------- alaska ------------------------
 --------------------------------------------------- 
 
 === Non-adiabatic coupling for DRT 2 STATE 3 and DRT 2 STATE 4 === 
  -1.313757E+00   8.440398E-01  -1.973335E-02
   5.311251E-01  -2.807813E+00   3.910289E-01
  -9.560854E-01   9.176124E-01   1.703697E-01
  -1.079502E+00   6.276492E-01  -3.153417E-01
   1.078294E+00   8.453475E-01   9.019428E-02
   8.498370E-01   8.459598E-01  -6.052579E-02
   9.214300E-02  -9.463750E-01  -1.585561E-01
   3.305216E-01  -7.355044E-02   6.177307E-01
   4.685127E-01   2.840912E-01  -7.235360E-01
  -1.430381E-02  -1.943914E-01  -2.020505E-02
  -5.885643E-03  -1.739065E-01   2.115179E-02
   6.392315E-03  -5.580950E-02   8.737541E-03
   1.844113E-02  -2.516769E-02  -2.971108E-03
  -6.033952E-03  -1.055302E-01   3.142164E-03
===================================

 Norm of the nonadiabatic coupling vector: 
 |h(drt2.state3,drt2.state4)|= 4.4566972926261 

 Cross-check of the non-adiabatic coupling term:
  DeltaE= -0.00464569410002014

  <L>*dE form CIGRD   :   -0.0000302435    -0.0001775770    -0.0002760518
  <L>*dE form NADCOUPL:   -0.0000302436    -0.0001785344    -0.0002826701
 -------------------------------------------------------------------------
  Difference          :    0.0000000001     0.0000009574     0.0000066183

 NOTE: This test is meaningless at a point of conical intersection!



============== timings ===================

   unik.gets.x    
   mcdrt.x        
   mcuft.x        
 * mcscf.x          walltime    0:03:10
   mcpc.x         
   mcpc.x         
   mcpc.x         
   mcpc.x         
   exptvl.x       
   exptvl.x       
   exptvl.x       
   exptvl.x       
   cidrt.x        
 * cidrt.x          walltime    0:00:05
 * tran.x           walltime    0:07:29
 * pciudg.x -m 19000   walltime   17:00:36
 * cipc.x           walltime    0:00:12
 * pciudg.x -m 19000   walltime   38:06:45
 * cipc.x           walltime    0:00:26
 * reindex.x        walltime    0:03:59
 * pciudg.x -m 19000   walltime    1:45:57
 * transci.x        walltime    0:02:12
 * transci.x        walltime    0:02:18
 * transci.x        walltime    0:02:12
 * transci.x        walltime    0:02:09
 * transci.x        walltime    0:02:09
 * transci.x        walltime    0:02:08
 * transci.x        walltime    0:04:18
 * transci.x        walltime    0:04:08
 * transci.x        walltime    0:04:03
 * transci.x        walltime    0:03:56
 * transci.x        walltime    0:03:55
 * transci.x        walltime    0:03:56
   exptvl.x       
   exptvl.x       
   exptvl.x       
   exptvl.x       
   exptvl.x       
   exptvl.x       
   exptvl.x       
   exptvl.x       
   mo_convert.x   
   mo_convert.x   
   mo_convert.x   
   mo_convert.x   
   mo_convert.x   
   mo_convert.x   
   mo_convert.x   
   mo_convert.x   
   mo_convert.x   
   mo_convert.x   
   mo_convert.x   
   mo_convert.x   
   mo_convert.x   
   mo_convert.x   
 * cidrt.x          walltime    0:00:07
 * tran.x           walltime    0:08:23
 * cigrd.x          walltime    0:09:37
 * tran.x           walltime    0:07:10
 * cigrd.x          walltime    0:09:44
 * tran.x           walltime    0:07:07
 * cigrd.x          walltime    0:10:20
 * tran.x           walltime    0:07:12
 * cigrd.x          walltime    0:10:31
 * tran.x           walltime    0:07:09
 * cigrd.x          walltime    0:12:50
 * tran.x           walltime    0:07:19
 * cigrd.x          walltime    0:10:30
 * tran.x           walltime    0:07:05
 * cigrd.x          walltime    0:10:20
 * tran.x           walltime    0:06:53
 * cigrd.x          walltime    0:10:17
 * tran.x           walltime    0:06:54
 * cigrd.x          walltime    0:20:30
 * tran.x           walltime    0:06:56
   tran.x         
   tdmrunfile.x   
 * cigrd.x          walltime    0:09:41
 * tran.x           walltime    0:06:50
   tran.x         
   tdmrunfile.x   
 * cigrd.x          walltime    0:10:00
 * tran.x           walltime    0:06:39
   tran.x         
   tdmrunfile.x   
 * cigrd.x          walltime    0:09:38
 * tran.x           walltime    0:06:39
   tran.x         
   tdmrunfile.x   
 * cigrd.x          walltime    0:10:56
 * tran.x           walltime    0:06:40
   tran.x         
   tdmrunfile.x   
 * cigrd.x          walltime    0:10:16
 * tran.x           walltime    0:06:34
   tran.x         
   tdmrunfile.x   
 * cigrd.x          walltime    0:09:53
 * tran.x           walltime    0:06:46
   tran.x         
   tdmrunfile.x   
 * cigrd.x          walltime    0:15:50
 * tran.x           walltime    0:06:37
   tran.x         
   tdmrunfile.x   
 * cigrd.x          walltime    0:10:33
 * tran.x           walltime    0:06:40
   tran.x         
   tdmrunfile.x   
 * cigrd.x          walltime    0:09:55
 * tran.x           walltime    0:06:35
   tran.x         
   tdmrunfile.x   
 * cigrd.x          walltime    0:11:51
 * tran.x           walltime    0:06:42
   tran.x         
   tdmrunfile.x   
 * cigrd.x          walltime    0:10:14
 * tran.x           walltime    0:06:29
   tran.x         
   tdmrunfile.x   

==========================================

