[Molden Format]
[Atoms] AU
  N     1    7    -4.5082829200   -0.1342819900   -0.4228200100        
  C     2    6    -1.7496705200   -0.0824342700   -0.1838819400        
  C     3    6    -0.3491890900    0.2202010900   -2.3813599000        
  C     4    6    -0.4819141000   -0.3194027500    2.1144844200        
  C     5    6     2.2679837200    0.2851297300   -2.2867536700        
  C     6    6     2.1285900100   -0.2535069600    2.1993448600        
  C     7    6     3.5096699900    0.0491470500   -0.0030301700        
  H     8    1    -5.2360393300   -2.3263659700    0.8673061800        
  H     9    1    -5.1710165100    1.2661961700    0.9629770900        
  H    10    1    -1.3260875200    0.4019365300   -4.1451509600        
  H    11    1    -1.5448115400   -0.5543420500    3.8263524900        
  H    12    1     3.3318141500    0.5199799700   -3.9976458500        
  H    13    1     3.0845146800   -0.4378414600    3.9798216900        
  H    14    1     5.5368142800    0.0998677000    0.0666404700        
[5D]
[7F]
[GTO]
  1  0
   s    12 1.00
  0.114200D+05  0.172695D-04
  0.171200D+04  0.134411D-03
  0.389300D+03  0.694561D-03
  0.110000D+03  0.278531D-02
  0.355700D+02  0.863457D-02
  0.125400D+02  0.199805D-01
  0.464400D+01  0.262908D-01
  0.129300D+01 -0.243845D-01
  0.511800D+00 -0.924934D-01
  0.178700D+00 -0.339683D+00
  0.246240D-01  0.345111D+00
  0.112530D-01  0.752750D+00
   s    10 1.00
  0.114200D+05  0.523000D-03
  0.171200D+04  0.404500D-02
  0.389300D+03  0.207750D-01
  0.110000D+03  0.807269D-01
  0.355700D+02  0.233074D+00
  0.125400D+02  0.433501D+00
  0.464400D+01  0.347472D+00
  0.129300D+01  0.412620D-01
  0.511800D+00 -0.850799D-02
  0.178700D+00  0.238400D-02
   s    10 1.00
  0.114200D+05 -0.115000D-03
  0.171200D+04 -0.895000D-03
  0.389300D+03 -0.462400D-02
  0.110000D+03 -0.185280D-01
  0.355700D+02 -0.573390D-01
  0.125400D+02 -0.132076D+00
  0.464400D+01 -0.172510D+00
  0.129300D+01  0.151814D+00
  0.511800D+00  0.599944D+00
  0.178700D+00  0.387462D+00
   s     1 1.00
  0.129300D+01  0.100000D+01
   s     1 1.00
  0.178700D+00  0.100000D+01
   p     5 1.00
  0.266300D+02  0.146700D-01
  0.594800D+01  0.917640D-01
  0.174200D+01  0.298683D+00
  0.555000D+00  0.498487D+00
  0.172500D+00  0.337023D+00
   p     1 1.00
  0.174200D+01  0.100000D+01
   p     1 1.00
  0.555000D+00  0.100000D+01
   d     1 1.00
  0.165400D+01  0.100000D+01
   d     1 1.00
  0.469000D+00  0.100000D+01
   f     1 1.00
  0.109300D+01  0.100000D+01
  
  2  0
   s    10 1.00
  0.823600D+04  0.531000D-03
  0.123500D+04  0.410800D-02
  0.280800D+03  0.210870D-01
  0.792700D+02  0.818530D-01
  0.255900D+02  0.234817D+00
  0.899700D+01  0.434401D+00
  0.331900D+01  0.346129D+00
  0.905900D+00  0.393780D-01
  0.364300D+00 -0.898300D-02
  0.128500D+00  0.238500D-02
   s    10 1.00
  0.823600D+04 -0.113000D-03
  0.123500D+04 -0.878000D-03
  0.280800D+03 -0.454000D-02
  0.792700D+02 -0.181330D-01
  0.255900D+02 -0.557600D-01
  0.899700D+01 -0.126895D+00
  0.331900D+01 -0.170352D+00
  0.905900D+00  0.140382D+00
  0.364300D+00  0.598684D+00
  0.128500D+00  0.395389D+00
   s     1 1.00
  0.905900D+00  0.100000D+01
   s     1 1.00
  0.364300D+00  0.100000D+01
   p     5 1.00
  0.187100D+02  0.140310D-01
  0.413300D+01  0.868660D-01
  0.120000D+01  0.290216D+00
  0.382700D+00  0.501008D+00
  0.120900D+00  0.343406D+00
   p     1 1.00
  0.382700D+00  0.100000D+01
   p     1 1.00
  0.120900D+00  0.100000D+01
   d     1 1.00
  0.109700D+01  0.100000D+01
   d     1 1.00
  0.318000D+00  0.100000D+01
   f     1 1.00
  0.761000D+00  0.100000D+01
  
  3  0
   s    10 1.00
  0.823600D+04  0.531000D-03
  0.123500D+04  0.410800D-02
  0.280800D+03  0.210870D-01
  0.792700D+02  0.818530D-01
  0.255900D+02  0.234817D+00
  0.899700D+01  0.434401D+00
  0.331900D+01  0.346129D+00
  0.905900D+00  0.393780D-01
  0.364300D+00 -0.898300D-02
  0.128500D+00  0.238500D-02
   s    10 1.00
  0.823600D+04 -0.113000D-03
  0.123500D+04 -0.878000D-03
  0.280800D+03 -0.454000D-02
  0.792700D+02 -0.181330D-01
  0.255900D+02 -0.557600D-01
  0.899700D+01 -0.126895D+00
  0.331900D+01 -0.170352D+00
  0.905900D+00  0.140382D+00
  0.364300D+00  0.598684D+00
  0.128500D+00  0.395389D+00
   s     1 1.00
  0.905900D+00  0.100000D+01
   s     1 1.00
  0.364300D+00  0.100000D+01
   p     5 1.00
  0.187100D+02  0.140310D-01
  0.413300D+01  0.868660D-01
  0.120000D+01  0.290216D+00
  0.382700D+00  0.501008D+00
  0.120900D+00  0.343406D+00
   p     1 1.00
  0.382700D+00  0.100000D+01
   p     1 1.00
  0.120900D+00  0.100000D+01
   d     1 1.00
  0.109700D+01  0.100000D+01
   d     1 1.00
  0.318000D+00  0.100000D+01
   f     1 1.00
  0.761000D+00  0.100000D+01
  
  4  0
   s    10 1.00
  0.823600D+04  0.531000D-03
  0.123500D+04  0.410800D-02
  0.280800D+03  0.210870D-01
  0.792700D+02  0.818530D-01
  0.255900D+02  0.234817D+00
  0.899700D+01  0.434401D+00
  0.331900D+01  0.346129D+00
  0.905900D+00  0.393780D-01
  0.364300D+00 -0.898300D-02
  0.128500D+00  0.238500D-02
   s    10 1.00
  0.823600D+04 -0.113000D-03
  0.123500D+04 -0.878000D-03
  0.280800D+03 -0.454000D-02
  0.792700D+02 -0.181330D-01
  0.255900D+02 -0.557600D-01
  0.899700D+01 -0.126895D+00
  0.331900D+01 -0.170352D+00
  0.905900D+00  0.140382D+00
  0.364300D+00  0.598684D+00
  0.128500D+00  0.395389D+00
   s     1 1.00
  0.905900D+00  0.100000D+01
   s     1 1.00
  0.364300D+00  0.100000D+01
   p     5 1.00
  0.187100D+02  0.140310D-01
  0.413300D+01  0.868660D-01
  0.120000D+01  0.290216D+00
  0.382700D+00  0.501008D+00
  0.120900D+00  0.343406D+00
   p     1 1.00
  0.382700D+00  0.100000D+01
   p     1 1.00
  0.120900D+00  0.100000D+01
   d     1 1.00
  0.109700D+01  0.100000D+01
   d     1 1.00
  0.318000D+00  0.100000D+01
   f     1 1.00
  0.761000D+00  0.100000D+01
  
  5  0
   s    10 1.00
  0.823600D+04  0.531000D-03
  0.123500D+04  0.410800D-02
  0.280800D+03  0.210870D-01
  0.792700D+02  0.818530D-01
  0.255900D+02  0.234817D+00
  0.899700D+01  0.434401D+00
  0.331900D+01  0.346129D+00
  0.905900D+00  0.393780D-01
  0.364300D+00 -0.898300D-02
  0.128500D+00  0.238500D-02
   s    10 1.00
  0.823600D+04 -0.113000D-03
  0.123500D+04 -0.878000D-03
  0.280800D+03 -0.454000D-02
  0.792700D+02 -0.181330D-01
  0.255900D+02 -0.557600D-01
  0.899700D+01 -0.126895D+00
  0.331900D+01 -0.170352D+00
  0.905900D+00  0.140382D+00
  0.364300D+00  0.598684D+00
  0.128500D+00  0.395389D+00
   s     1 1.00
  0.905900D+00  0.100000D+01
   s     1 1.00
  0.364300D+00  0.100000D+01
   p     5 1.00
  0.187100D+02  0.140310D-01
  0.413300D+01  0.868660D-01
  0.120000D+01  0.290216D+00
  0.382700D+00  0.501008D+00
  0.120900D+00  0.343406D+00
   p     1 1.00
  0.382700D+00  0.100000D+01
   p     1 1.00
  0.120900D+00  0.100000D+01
   d     1 1.00
  0.109700D+01  0.100000D+01
   d     1 1.00
  0.318000D+00  0.100000D+01
   f     1 1.00
  0.761000D+00  0.100000D+01
  
  6  0
   s    10 1.00
  0.823600D+04  0.531000D-03
  0.123500D+04  0.410800D-02
  0.280800D+03  0.210870D-01
  0.792700D+02  0.818530D-01
  0.255900D+02  0.234817D+00
  0.899700D+01  0.434401D+00
  0.331900D+01  0.346129D+00
  0.905900D+00  0.393780D-01
  0.364300D+00 -0.898300D-02
  0.128500D+00  0.238500D-02
   s    10 1.00
  0.823600D+04 -0.113000D-03
  0.123500D+04 -0.878000D-03
  0.280800D+03 -0.454000D-02
  0.792700D+02 -0.181330D-01
  0.255900D+02 -0.557600D-01
  0.899700D+01 -0.126895D+00
  0.331900D+01 -0.170352D+00
  0.905900D+00  0.140382D+00
  0.364300D+00  0.598684D+00
  0.128500D+00  0.395389D+00
   s     1 1.00
  0.905900D+00  0.100000D+01
   s     1 1.00
  0.364300D+00  0.100000D+01
   p     5 1.00
  0.187100D+02  0.140310D-01
  0.413300D+01  0.868660D-01
  0.120000D+01  0.290216D+00
  0.382700D+00  0.501008D+00
  0.120900D+00  0.343406D+00
   p     1 1.00
  0.382700D+00  0.100000D+01
   p     1 1.00
  0.120900D+00  0.100000D+01
   d     1 1.00
  0.109700D+01  0.100000D+01
   d     1 1.00
  0.318000D+00  0.100000D+01
   f     1 1.00
  0.761000D+00  0.100000D+01
  
  7  0
   s    10 1.00
  0.823600D+04  0.531000D-03
  0.123500D+04  0.410800D-02
  0.280800D+03  0.210870D-01
  0.792700D+02  0.818530D-01
  0.255900D+02  0.234817D+00
  0.899700D+01  0.434401D+00
  0.331900D+01  0.346129D+00
  0.905900D+00  0.393780D-01
  0.364300D+00 -0.898300D-02
  0.128500D+00  0.238500D-02
   s    10 1.00
  0.823600D+04 -0.113000D-03
  0.123500D+04 -0.878000D-03
  0.280800D+03 -0.454000D-02
  0.792700D+02 -0.181330D-01
  0.255900D+02 -0.557600D-01
  0.899700D+01 -0.126895D+00
  0.331900D+01 -0.170352D+00
  0.905900D+00  0.140382D+00
  0.364300D+00  0.598684D+00
  0.128500D+00  0.395389D+00
   s     1 1.00
  0.905900D+00  0.100000D+01
   s     1 1.00
  0.364300D+00  0.100000D+01
   p     5 1.00
  0.187100D+02  0.140310D-01
  0.413300D+01  0.868660D-01
  0.120000D+01  0.290216D+00
  0.382700D+00  0.501008D+00
  0.120900D+00  0.343406D+00
   p     1 1.00
  0.382700D+00  0.100000D+01
   p     1 1.00
  0.120900D+00  0.100000D+01
   d     1 1.00
  0.109700D+01  0.100000D+01
   d     1 1.00
  0.318000D+00  0.100000D+01
   f     1 1.00
  0.761000D+00  0.100000D+01
  
  8  0
   s     4 1.00
  0.130100D+02  0.196850D-01
  0.196200D+01  0.137977D+00
  0.444600D+00  0.478148D+00
  0.122000D+00  0.501240D+00
   s     1 1.00
  0.122000D+00  0.100000D+01
   p     1 1.00
  0.727000D+00  0.100000D+01
  
  9  0
   s     4 1.00
  0.130100D+02  0.196850D-01
  0.196200D+01  0.137977D+00
  0.444600D+00  0.478148D+00
  0.122000D+00  0.501240D+00
   s     1 1.00
  0.122000D+00  0.100000D+01
   p     1 1.00
  0.727000D+00  0.100000D+01
  
 10  0
   s     4 1.00
  0.130100D+02  0.196850D-01
  0.196200D+01  0.137977D+00
  0.444600D+00  0.478148D+00
  0.122000D+00  0.501240D+00
   s     1 1.00
  0.122000D+00  0.100000D+01
   p     1 1.00
  0.727000D+00  0.100000D+01
  
 11  0
   s     4 1.00
  0.130100D+02  0.196850D-01
  0.196200D+01  0.137977D+00
  0.444600D+00  0.478148D+00
  0.122000D+00  0.501240D+00
   s     1 1.00
  0.122000D+00  0.100000D+01
   p     1 1.00
  0.727000D+00  0.100000D+01
  
 12  0
   s     4 1.00
  0.130100D+02  0.196850D-01
  0.196200D+01  0.137977D+00
  0.444600D+00  0.478148D+00
  0.122000D+00  0.501240D+00
   s     1 1.00
  0.122000D+00  0.100000D+01
   p     1 1.00
  0.727000D+00  0.100000D+01
  
 13  0
   s     4 1.00
  0.130100D+02  0.196850D-01
  0.196200D+01  0.137977D+00
  0.444600D+00  0.478148D+00
  0.122000D+00  0.501240D+00
   s     1 1.00
  0.122000D+00  0.100000D+01
   p     1 1.00
  0.727000D+00  0.100000D+01
  
 14  0
   s     4 1.00
  0.130100D+02  0.196850D-01
  0.196200D+01  0.137977D+00
  0.444600D+00  0.478148D+00
  0.122000D+00  0.501240D+00
   s     1 1.00
  0.122000D+00  0.100000D+01
   p     1 1.00
  0.727000D+00  0.100000D+01
  
[MO]
 Sym= __1_a__
 Ene=  0.000000000000000E+000
 Spin= Alpha
 Occup=    2.00000000000000     
                     1 -2.127402573186190E-004
                     2  0.998337864792453     
                     3 -2.266471138136750E-002
                     4  1.506734915944900E-003
                     5  6.293277526183760E-003
                     6  1.108806167644260E-002
                     7 -8.046319307624189E-004
                     8  1.664912539540920E-002
                     9 -1.468690997032730E-003
                    10  1.131321687522740E-005
                    11 -1.518827218778400E-003
                    12 -3.680685563963760E-003
                    13 -1.074104276037890E-004
                    14 -5.255490660590410E-003
                    15  9.607789657353004E-005
                    16  1.384213917301550E-005
                    17 -7.314041998419730E-006
                    18  6.943310399246500E-005
                    19  6.019917073929340E-006
                    20  2.929751798050042E-004
                    21  7.328436051782640E-004
                    22 -1.757503823506690E-005
                    23  2.128223704136220E-004
                    24  1.774526012574570E-005
                    25  4.016793164070463E-005
                    26 -5.210750591007450E-005
                    27  1.678152823269116E-005
                    28  3.819723902280300E-005
                    29  2.190891574167830E-005
                    30 -1.018434116891820E-005
                    31  7.200181476039059E-006
                    32 -3.303593050495880E-004
                    33  4.790348098243050E-004
                    34  2.858375887685150E-004
                    35  4.006328009774780E-005
                    36  4.398251383508130E-004
                    37  5.072063459327650E-004
                    38 -1.518377321085930E-003
                    39 -3.603642715202930E-004
                    40 -1.345616129865230E-004
                    41  8.677572903865750E-004
                    42  4.278652576186490E-003
                    43  3.130292868430980E-004
                    44 -2.064267779154960E-003
                    45  1.439915275020961E-006
                    46 -1.949796046126060E-004
                    47 -1.599229471916170E-005
                    48  1.231760634407682E-006
                    49  2.018398886607800E-005
                    50  2.440007292282913E-004
                    51  4.600298592357870E-004
                    52  1.566459485702320E-005
                    53 -1.380415351285460E-004
                    54 -3.639993816163070E-005
                    55  7.905973590843388E-005
                    56 -1.254343777161027E-005
                    57  1.151823870127134E-005
                    58  8.514430230615879E-005
                    59  4.879154110919300E-006
                    60 -5.384448005970339E-005
                    61 -6.553713230683304E-006
                    62 -8.760394675081540E-004
                    63 -7.328287555268881E-004
                    64 -1.570279099048550E-004
                    65  3.203244055139260E-003
                    66 -2.879841650124820E-003
                    67  7.704768320094460E-005
                    68  9.545418977519240E-004
                    69  8.073913519075810E-004
                    70 -3.207584585599900E-005
                    71  6.989942498011020E-004
                    72  1.430091179611100E-003
                    73  2.860782946022410E-004
                    74 -2.197292761660470E-003
                    75  7.176252102639061E-005
                    76 -8.969821543167880E-005
                    77 -1.739897423805210E-005
                    78  4.616735379143520E-005
                    79  1.203428172433870E-005
                    80  3.247278633871373E-004
                    81 -1.937488958817540E-004
                    82 -5.790891010194560E-005
                    83 -4.010128105950500E-006
                    84  1.788035382540500E-005
                    85 -2.729822594139884E-005
                    86 -1.819974789453692E-004
                    87 -1.489674977683272E-005
                    88  1.679255087198980E-005
                    89  1.929642927514090E-005
                    90 -7.250082003164746E-005
                    91  7.108231192771620E-006
                    92  4.300336440405640E-006
                    93 -4.996159075306470E-004
                    94  3.158704170918520E-004
                    95 -1.185578989505620E-003
                    96 -1.611708019826360E-004
                    97 -3.553952356996570E-005
                    98  9.856923469769860E-004
                    99  1.228422631985220E-004
                   100 -7.783095526046701E-005
                   101  3.514248515429970E-004
                   102 -1.864288628631010E-003
                   103 -4.077103788828700E-005
                   104  1.590495839333510E-004
                   105 -3.206556320347400E-005
                   106 -2.977691669631140E-005
                   107 -2.882916967403350E-007
                   108  2.890471778423520E-005
                   109  3.743975298921760E-006
                   110 -1.207848243403380E-004
                   111  1.335470944916710E-004
                   112  5.047541360473700E-005
                   113 -1.449143214897194E-004
                   114 -2.718616351236820E-005
                   115 -2.846466220759007E-005
                   116  3.802063675884764E-005
                   117 -9.053146400118211E-006
                   118 -2.722119294240540E-006
                   119 -8.626005777488741E-006
                   120  5.023986057572984E-006
                   121  3.011075738938730E-007
                   122 -3.253582009226540E-004
                   123 -1.809858573693340E-003
                   124  1.611064821351380E-004
                   125  7.597333141863740E-004
                   126  1.286617427404260E-003
                   127  1.869190182738880E-004
                   128 -1.594809728187870E-004
                   129  5.008828477862820E-004
                   130 -3.127137374330620E-005
                   131  3.578191582190870E-004
                   132  1.745753573856830E-003
                   133 -1.013466746308040E-005
                   134  6.210640850088220E-004
                   135  6.745149064925308E-005
                   136 -2.613722438297980E-005
                   137 -8.550734630613519E-006
                   138 -5.655866739567740E-005
                   139 -5.103668482507540E-006
                   140  2.438006113709394E-004
                   141  1.949286821062060E-004
                   142 -6.748410355347750E-007
                   143 -3.945202058449700E-004
                   144 -5.999145242416970E-005
                   145 -1.869644266683842E-005
                   146 -4.412814133965919E-005
                   147 -8.384337861160821E-006
                   148  6.551327570317340E-006
                   149 -6.316804398874660E-006
                   150 -9.696699885124337E-005
                   151  9.232355270704383E-006
                   152 -1.656429333301390E-004
                   153 -4.576738536061630E-004
                   154 -6.441821066706199E-005
                   155  7.391569155663540E-004
                   156  2.757369669119000E-004
                   157 -7.938249153601100E-005
                   158 -1.448117662697420E-005
                   159 -2.882500106253990E-004
                   160 -1.053991465812620E-005
                   161  6.964791770174910E-005
                   162 -5.164828561248400E-004
                   163 -1.562640532334310E-004
                   164  8.658915290456990E-004
                   165 -9.737757052057369E-006
                   166 -1.087353670690950E-005
                   167  1.314656587457830E-008
                   168  2.074708642901480E-005
                   169 -1.720387121553190E-006
                   170 -4.501666050131567E-005
                   171  5.063772049326200E-005
                   172  1.640217357907590E-005
                   173 -3.595711509604620E-005
                   174 -6.228344931548980E-006
                   175 -5.976994668819955E-006
                   176 -8.839904258704132E-006
                   177 -1.621185361542423E-006
                   178 -7.865673049608300E-006
                   179  2.452682510754230E-006
                   180  2.057234244062190E-006
                   181  1.355257882005311E-006
                   182 -1.477341710408780E-004
                   183 -3.147607774113660E-004
                   184  3.600815654020610E-005
                   185  2.518281916853940E-004
                   186 -1.970061607852320E-004
                   187 -6.930872536611710E-005
                   188 -5.388244043739720E-005
                   189  1.463801106057040E-004
                   190 -4.319338237368250E-005
                   191  3.848482957947600E-004
                   192 -5.177970892462890E-004
                   193 -1.976017168079250E-004
                   194  1.374816571066730E-003
                   195  2.004278841189865E-005
                   196 -5.296742916627000E-006
                   197 -7.208701098599370E-006
                   198 -1.247150039114054E-005
                   199 -3.087088537396360E-007
                   200 -7.559942664058825E-005
                   201 -2.725174999742990E-004
                   202 -4.063132224925030E-007
                   203  2.269840821498960E-005
                   204  3.277776701209860E-005
                   205  1.127626693398281E-006
                   206  6.846261751167235E-006
                   207 -3.313869425946130E-006
                   208  1.605055022263754E-005
                   209  1.622914389270410E-007
                   210 -5.628745074016110E-006
                   211 -1.869515611599894E-006
                   212 -7.511923568195570E-004
                   213  9.264857549494980E-004
                   214  8.935067721232280E-005
                   215 -4.583486302587330E-005
                   216  2.898113778061300E-005
                   217 -2.138726247866360E-003
                   218  1.109882834522970E-003
                   219  1.054450504487360E-004
                   220  1.896973739888620E-005
                   221  9.167602742127880E-005
                   222  8.402240832024450E-004
                   223 -1.354190718392390E-003
                   224 -6.092504812412790E-005
                   225 -8.999749366267929E-006
                   226  1.186843452326640E-004
                   227  7.114743315135120E-004
                   228 -5.912211062091040E-004
                   229 -1.182264553463360E-005
                   230  1.075591968871880E-005
                   231 -1.028320798471020E-004
                   232  7.279552420812350E-004
                   233 -3.898513233887670E-004
                   234 -3.828348158551300E-006
                   235 -3.347644783991780E-006
                   236  4.327647473741150E-005
                   237 -2.098129436352140E-005
                   238 -4.706974078017130E-004
                   239 -8.049264845232000E-006
                   240 -2.324946903421640E-006
                   241  4.035725612499980E-006
                   242 -2.981114047922450E-004
                   243  1.991415251574010E-004
                   244  3.903428520792240E-005
                   245 -8.948342314942590E-007
                   246 -1.007502979862040E-006
 Sym= __2_a__
 Ene=  0.000000000000000E+000
 Spin= Alpha
 Occup=    2.00000000000000     
                     1 -2.570609820889160E-005
                     2 -9.771508765848070E-005
                     3  3.000800665067510E-004
                     4 -9.141089168624999E-006
                     5  9.877425243988830E-004
                     6  1.666697898172630E-003
                     7 -1.495609174993960E-004
                     8  6.805246933390410E-004
                     9 -1.395076775650620E-004
                    10 -7.004513889013420E-006
                    11 -8.837230627873340E-005
                    12  1.364317477963980E-004
                    13  1.980971969866990E-005
                    14 -1.287087643512930E-004
                    15 -4.947690134496205E-005
                    16  2.918668886007990E-005
                    17  2.937571302311630E-006
                    18  5.500452801940360E-005
                    19 -4.841193664910750E-007
                    20  3.301406600838594E-005
                    21 -4.946788083052640E-005
                    22 -1.875503597219090E-005
                    23  1.121856749604202E-004
                    24  2.409664760339870E-005
                    25 -2.771673558564460E-005
                    26  1.223642411853254E-004
                    27  1.280213191685944E-005
                    28 -6.020259790373480E-005
                    29 -8.445257384839610E-006
                    30  1.015204869385756E-004
                    31 -3.049049685911700E-006
                    32   1.00080077611786     
                    33  8.638364342213651E-003
                    34  2.841529231758070E-003
                    35 -8.446111445718919E-003
                    36 -1.389619868793220E-003
                    37 -1.669499963280790E-004
                    38  2.229395550564980E-005
                    39  5.549088773665740E-004
                    40  1.390690921243910E-004
                    41 -3.529112091509250E-004
                    42  2.523208955142280E-003
                    43  7.022518824174320E-005
                    44  3.582517155658840E-004
                    45  3.110888858364081E-004
                    46 -2.516686069872150E-006
                    47 -1.040356889343510E-004
                    48  3.217555332000720E-004
                    49  1.175281340670180E-005
                    50 -1.017657511116320E-003
                    51 -3.469270538055400E-004
                    52  2.159122465243140E-004
                    53 -1.030745197434838E-004
                    54  4.010568368364520E-005
                    55 -3.010654459509607E-005
                    56  2.545305614474930E-004
                    57  7.943437307565551E-006
                    58 -3.196865214682940E-005
                    59 -3.659185317987670E-005
                    60  7.685513576271395E-005
                    61 -1.362161357758363E-006
                    62  1.795160349206890E-002
                    63 -1.467684262176100E-003
                    64 -2.876499343506040E-004
                    65  2.782791801409720E-003
                    66 -2.963470642225390E-004
                    67 -5.251209361960070E-005
                    68  3.952492961858260E-004
                    69  1.389429876859250E-005
                    70 -4.590636870995210E-005
                    71  3.312171744432770E-004
                    72  1.973047805626660E-004
                    73  2.178702679928740E-004
                    74 -1.768226031847260E-003
                    75  9.491064993378722E-006
                    76  2.113838626905250E-005
                    77  3.410409324057190E-006
                    78 -4.398635255507400E-005
                    79 -4.214174536981300E-006
                    80 -5.387066428925372E-004
                    81 -3.630165155485540E-004
                    82 -2.349071045043150E-006
                    83  8.033387096461220E-004
                    84  9.239900007087730E-005
                    85  3.487619830237635E-005
                    86  1.107919561288628E-004
                    87  1.829149907452608E-005
                    88 -2.891084908957800E-005
                    89 -2.554794505653520E-005
                    90 -2.639322413764549E-005
                    91  6.331969324592378E-006
                    92  1.902686465907030E-002
                    93 -1.763070484229630E-003
                    94 -3.367202967090790E-004
                    95  3.388806451426640E-003
                    96 -2.062205405740240E-004
                    97  2.070262337618760E-005
                    98 -2.865664550845790E-004
                    99 -1.161996640299230E-004
                   100  8.831089776120660E-005
                   101 -8.238371023068790E-004
                   102  2.987274951190670E-004
                   103 -1.739224657763970E-004
                   104  1.498045952131290E-003
                   105  4.351416484449579E-006
                   106 -2.903550168295580E-007
                   107  1.967650211247140E-006
                   108 -2.047621573516940E-005
                   109 -6.720635665350430E-007
                   110 -1.421419965371597E-004
                   111  5.088707590574360E-004
                   112 -2.000052543984850E-005
                   113  6.089701949068220E-004
                   114 -2.286594755175790E-005
                   115 -4.252407490278187E-005
                   116  8.657740773296489E-005
                   117 -1.596415857982318E-005
                   118  1.765840142936348E-005
                   119 -2.136605666513660E-005
                   120 -2.866562329430605E-005
                   121 -8.728563747400000E-007
                   122  1.747425209842940E-005
                   123 -7.030921261045021E-004
                   124  2.420338589625360E-004
                   125 -4.012322630055270E-004
                   126 -1.094727659129480E-004
                   127  3.528933394477810E-006
                   128 -4.988451850397560E-005
                   129  6.287378768037350E-004
                   130  1.349832898894780E-005
                   131  4.884923242438940E-005
                   132  3.421697657289390E-004
                   133 -3.709420204557100E-005
                   134  4.076821789680710E-004
                   135  1.688075384171911E-006
                   136  3.579716995842840E-005
                   137  4.988017171124000E-006
                   138 -3.860794921501440E-005
                   139 -6.815844440869590E-006
                   140  1.836878041762926E-004
                   141 -2.742498515266470E-004
                   142 -1.792942733611000E-005
                   143 -2.215098890636940E-004
                   144  1.924254780374230E-005
                   145 -1.032405867597764E-005
                   146  1.344389645396202E-005
                   147 -1.947478979192012E-006
                   148 -3.634366223239400E-006
                   149 -5.956969571041520E-006
                   150 -2.026295293104457E-005
                   151  2.653244740691410E-006
                   152  8.675039263538041E-005
                   153 -7.383125406925180E-004
                   154  2.277271563057030E-004
                   155 -1.254334915659900E-004
                   156 -1.394434105829130E-004
                   157 -1.737029696232500E-005
                   158  2.874760770973040E-005
                   159  4.828334912140540E-004
                   160  1.400201188149330E-005