===========================================================
===                   runc                              ===
===           version 7.0.2 , April 2021              ===
===          requires COLUMBUS version Col_7.0.2        ===
===                                                     ===
===   written by: Thomas Mueller                        ===
===   gradient ext. by: Michal Dallos                   ===
===               University of Vienna                  ===
===   maintained by: Felix Plasser                      ===
===               Loughborough University               ===
===========================================================


coremem. (seq.): 200000 MB,  coremem. (par.): 19000 MB
Vdisk size: 0 DP
Reading job control file control.run ... 
 ****** This is an 2c-QDPT MRCISD calculation ****** 
 model space size=4:0:4
SMOLCAS=/home-4/yshen57@jhu.edu/Software/Chemistry/Columbus-7.0.2_OpenMolcas-18.09-col/OpenMolcas/build
Found serial Molcas Installation at /home-4/yshen57@jhu.edu/Software/Chemistry/Columbus-7.0.2_OpenMolcas-18.09-col/OpenMolcas/build
  done 
INFO: keywords nadcoupl and seward are supported for DCI mode only!
seward specified, using also alaska
Creating various directories ... 
 done 
SMOLCAS=/home-4/yshen57@jhu.edu/Software/Chemistry/Columbus-7.0.2_OpenMolcas-18.09-col/OpenMolcas/build
PMOLCAS=
Checking for illegal keywords and keyword combinations ... done 

 Nonadiabatic coupling term calculation type: DCI+DCSF
  States involved in calcualtion:
   DRT1,state1;  DRT1,state2
   DRT1,state1;  DRT1,state3
   DRT1,state1;  DRT1,state4
   DRT1,state2;  DRT1,state3
   DRT1,state2;  DRT1,state4
   DRT1,state3;  DRT1,state4
   DRT2,state1;  DRT2,state2
   DRT2,state1;  DRT2,state3
   DRT2,state1;  DRT2,state4
   DRT2,state2;  DRT2,state3
   DRT2,state2;  DRT2,state4
   DRT2,state3;  DRT2,state4

Additional gradients computed:
   DRT1,state1
   DRT1,state2
   DRT1,state3
   DRT1,state4
   DRT2,state1
   DRT2,state2
   DRT2,state3
   DRT2,state4

Checking for complete set of input files ... 
mcscf calculation without preceeding scf calculation 
will use 
 /scratch/users/yshen57@jhu.edu/Molcas/min-A1/mrci/mocoef as starting MOs 
Performing coupled non-rel. SO-CI calculation, nrroots: 4 0 4
starting cidrt.x   -m 200000 < cidrtin > temp at Sun May  1 20:05:52 EDT 2022

 -------------------- cidrt.x ------------------------
 spatial symmetry:  
 total number of configurations          0
 number of reference configurations     0
 --------------------------------------------------- 
 Preparing SO cidrtin files for 1 symmetries
cat ../cidrtin | sed -e 's/^.*input the molecular spatial symmetry/1 \/ molsym/' > cidrtin.so_A 
calling cidrt.x -m 200000 < cidrtin.so_A > cidrtls.soci_A ...
Checking the DRTs for consistency ...
calling reindex.x -i 1 -m 200000  ...
done

 ++++++++++++++++++ input file generation +++++++++++++ 
 runc start: Sun May  1 20:06:09 EDT 2022
 
  runc start: Sun May  1 20:06:09 EDT 2022
 
 starting unik.gets.x > unikls at Sun May  1 20:06:09 EDT 2022

 -------------------- unik.gets.x ------------------------
 --------------------------------------------------- 
 ++++++++++++++++++++ ao integral calculation ++++++++++++++++
starting pymolcas molcas.input.seward > molcas.output.seward  at Sun May  1 20:06:10 EDT 2022

Generating link ln -s ./molcas.OrdInt ORDINT 
 -------------------- seward ------------------------
      Basis set label: N.ANILINE.........
      Basis set label: C.ANILINE.........
      Basis set label: H.ANILINE.........
  Nuclear Coordinates in                   atomic units                                   Angstrom 
     Center  Label                x              y              z                     x              y              z
        1      N1              -4.451915       0.164570      -0.000000             -2.355852       0.087086      -0.000000
        2      C2              -1.769509      -0.014510      -0.000000             -0.936384      -0.007678      -0.000000
        3      C3              -0.427093      -0.006140      -2.269155             -0.226008      -0.003249      -1.200785
        4      C4              -0.427093      -0.006139       2.269154             -0.226008      -0.003249       1.200785
        5      C5               2.188996      -0.000482      -2.256639              1.158367      -0.000255      -1.194162
        6      C6               2.188995      -0.000481       2.256639              1.158366      -0.000255       1.194162
        7      C7               3.514972       0.002209       0.000000              1.860043       0.001169       0.000000
        8      H8              -5.185538      -0.712627      -1.557196             -2.744068      -0.377106      -0.824032
        9      H9              -5.185538      -0.712626       1.557195             -2.744069      -0.377105       0.824032
       10      H10             -1.430534      -0.000507      -4.031814             -0.757006      -0.000268      -2.133544
       11      H11             -1.430535      -0.000505       4.031814             -0.757007      -0.000267       2.133544
       12      H12              3.191412      -0.001070      -4.020998              1.688823      -0.000566      -2.127820
       13      H13              3.191411      -0.001068       4.020998              1.688822      -0.000565       2.127821
       14      H14              5.542833       0.005025       0.000000              2.933141       0.002659       0.000000
 
            Nuclear Potential Energy            272.24641132 au
 --------------------------------------------------- 
  >>>>>>>>>>>>> info: preparing drt no 1 out of 1 <<<<<<
starting mcdrt.x -m 200000 < mcdrtin > mcdrtls at Sun May  1 20:12:28 EDT 2022

 -------------------- mcdrt.x ------------------------
  Spin multiplicity: singlet 
  Spatial symmetry (#): 1
  Number of Configurations:       1275 
  --------------------------------------------------- 
 starting mcuft.x at Sun May  1 20:12:28 EDT 2022

 -------------------- mcuft.x ------------------------
 --------------------------------------------------- 
 ++++++++++++++++++++ MCSCF calculation +++++++++++++++
info: taking mocoef file from /scratch/users/yshen57@jhu.edu/Molcas/min-A1/mrci/mocoef
adding flag 30 to mcscfin
Writing mcdenin files for mcscf.x for 1 DRTs
adding flag 26 to mcscfin
starting mcscf.x -m 200000 at Sun May  1 20:12:29 EDT 2022

 -------------------- mcscf.x ------------------------
 Individual total energies for all states: 
    DRT #1 state # 1 wt 0.250 total energy=     -285.909758143, rel. (eV)=   0.000000
    DRT #1 state # 2 wt 0.250 total energy=     -285.684877214, rel. (eV)=   6.119324
    DRT #1 state # 3 wt 0.250 total energy=     -285.675240276, rel. (eV)=   6.381559
    DRT #1 state # 4 wt 0.250 total energy=     -285.634342864, rel. (eV)=   7.494434
  --------------------------------------------------- 
 starting mcpc.x -m 200000 < mcpcin > mcpcls at Sun May  1 20:15:27 EDT 2022

 -------------------- mcpc.x ------------------------
 --------------------------------------------------- 
 starting mcpc.x -m 200000 < mcpcin > mcpcls at Sun May  1 20:15:27 EDT 2022

 -------------------- mcpc.x ------------------------
 --------------------------------------------------- 
 starting mcpc.x -m 200000 < mcpcin > mcpcls at Sun May  1 20:15:27 EDT 2022

 -------------------- mcpc.x ------------------------
 --------------------------------------------------- 
 starting mcpc.x -m 200000 < mcpcin > mcpcls at Sun May  1 20:15:28 EDT 2022

 -------------------- mcpc.x ------------------------
 --------------------------------------------------- 
 
========= state properties for state-averaged MCSCF =========
mcscf.drt1.st01.sp
starting exptvl.x -m 200000   at Sun May  1 20:15:28 EDT 2022

 -------------------- exptvl.x ------------------------
  === dipole moment === 
                     X               Y               Z   
   orign x       0.00000000      0.00000000      0.00000000
   orign y       0.00000000      0.00000000      0.00000000
   orign z       0.00000000      0.00000000      0.00000000
   nuclear      -0.85429079     -0.42465299     -0.00000122
   electronic    0.45118279     -0.11494716      0.00000132
   total        -0.40310800     -0.53960015      0.00000010
   total Dipole moment =   1.71198519    Debye
 --------------------------------------------------- 
 mcscf.drt1.st02.sp
starting exptvl.x -m 200000   at Sun May  1 20:15:28 EDT 2022

 -------------------- exptvl.x ------------------------
  === dipole moment === 
                     X               Y               Z   
   orign x       0.00000000      0.00000000      0.00000000
   orign y       0.00000000      0.00000000      0.00000000
   orign z       0.00000000      0.00000000      0.00000000
   nuclear      -0.85429079     -0.42465299     -0.00000122
   electronic    4.81391671     -0.10045337      0.00000169
   total         3.95962592     -0.52510636      0.00000047
   total Dipole moment =  10.15248946    Debye
 --------------------------------------------------- 
 mcscf.drt1.st03.sp
starting exptvl.x -m 200000   at Sun May  1 20:15:28 EDT 2022

 -------------------- exptvl.x ------------------------
  === dipole moment === 
                     X               Y               Z   
   orign x       0.00000000      0.00000000      0.00000000
   orign y       0.00000000      0.00000000      0.00000000
   orign z       0.00000000      0.00000000      0.00000000
   nuclear      -0.85429079     -0.42465299     -0.00000122
   electronic    0.15395212     -0.05432240      0.00000128
   total        -0.70033867     -0.47897539      0.00000006
   total Dipole moment =   2.15658330    Debye
 --------------------------------------------------- 
 mcscf.drt1.st04.sp
starting exptvl.x -m 200000   at Sun May  1 20:15:28 EDT 2022

 -------------------- exptvl.x ------------------------
  === dipole moment === 
                     X               Y               Z   
   orign x       0.00000000      0.00000000      0.00000000
   orign y       0.00000000      0.00000000      0.00000000
   orign z       0.00000000      0.00000000      0.00000000
   nuclear      -0.85429079     -0.42465299     -0.00000122
   electronic    5.84482583     -0.15968377      0.00000179
   total         4.99053504     -0.58433676      0.00000057
   total Dipole moment =  12.77134393    Debye
 --------------------------------------------------- 
  using the MCSCF MOs ... 
starting cidrt.x  -m 200000 < cidrtin.1 > cidrtls at Sun May  1 20:15:29 EDT 2022

 -------------------- cidrt.x ------------------------
 total number of orbitals            :   246
 number of frozen core orbitals      :    18
 number of frozen virtual orbitals   :     0
 number of internal orbitals         :    14
 number of external orbitals         :   214
 spatial symmetry:   a  
 
 total number of configurations  158587185
 number of reference configurations  1275
 --------------------------------------------------- 
 starting cidrt.x  -m 200000 < cidrtin.2 > cidrtls at Sun May  1 20:15:31 EDT 2022

 -------------------- cidrt.x ------------------------
 total number of orbitals            :   246
 number of frozen core orbitals      :    18
 number of frozen virtual orbitals   :     0
 number of internal orbitals         :    14
 number of external orbitals         :   214
 spatial symmetry:   a  
 
 total number of configurations  282461366
 number of reference configurations  1666
 --------------------------------------------------- 
 starting tran.x -m 200000  at Sun May  1 20:15:37 EDT 2022

 -------------------- tran.x ------------------------
 --------------------------------------------------- 
  Starting ciudgav with DRT # 1 out of 2 

 *** starting pciudg section *** 
nproc: 48 machinefile:  
assuming machinefile syntax: one host name per line optionally repeated
 section2, MPI_STARTUP:
 /software/apps/mpi/openmpi/3.1/intel/18.0/bin/mpirun -np 48  /home-4/yshen57@jhu.edu/Software/Chemistry/Columbus-7.0.2_OpenMolcas-18.09-col/Columbus/pciudg.x -m 19000 
 -------------------- pciudg.x ------------------------
 type of calculation:          mr-sdci
 number of configurations:     158587185
 total mr-sdci energy             -286.1075210473 
 last mr-sdci energy change           0.0000000000 
 residual                             0.0000062702 
  type of calculation:          mr-sdci
 number of configurations:     158587185
 total mr-sdci energy             -285.9209067556 
 last mr-sdci energy change           0.0000000001 
 residual                             0.0000055197 
  type of calculation:          mr-sdci
 number of configurations:     158587185
 total mr-sdci energy             -285.9184994406 
 last mr-sdci energy change          -0.0000000000 
 residual                             0.0000068172 
  type of calculation:          mr-sdci
 number of configurations:     158587185
 total mr-sdci energy             -285.8691474888 
 last mr-sdci energy change           0.0000000000 
 residual                             0.0000078671 
  --------------------------------------------------- 
 keyinfile returned docipci=0:
starting cipc.x -m 200000 < cipcin > cipcls at Mon May  2 13:13:26 EDT 2022

 -------------------- cipc.x ------------------------
 --------------------------------------------------- 
  Starting ciudgav with DRT # 2 out of 2 

 *** starting pciudg section *** 
nproc: 48 machinefile:  
assuming machinefile syntax: one host name per line optionally repeated
 section2, MPI_STARTUP:
 /software/apps/mpi/openmpi/3.1/intel/18.0/bin/mpirun -np 48  /home-4/yshen57@jhu.edu/Software/Chemistry/Columbus-7.0.2_OpenMolcas-18.09-col/Columbus/pciudg.x -m 19000 
 -------------------- pciudg.x ------------------------
 type of calculation:          mr-sdci
 number of configurations:     282461366
 total mr-sdci energy             -285.9511616968 
 last mr-sdci energy change          -0.0000000000 
 residual                             0.0000075919 
  type of calculation:          mr-sdci
 number of configurations:     282461366
 total mr-sdci energy             -285.9311479902 
 last mr-sdci energy change           0.0000000001 
 residual                             0.0000089808 
  type of calculation:          mr-sdci
 number of configurations:     282461366
 total mr-sdci energy             -285.9239920332 
 last mr-sdci energy change           0.0000000000 
 residual                             0.0000083700 
  type of calculation:          mr-sdci
 number of configurations:     282461366
 total mr-sdci energy             -285.9222280989 
 last mr-sdci energy change           0.0000000000 
 residual                             0.0000077415 
  --------------------------------------------------- 
 keyinfile returned docipci=0:
starting cipc.x -m 200000 < cipcin > cipcls at Wed May  4 00:17:37 EDT 2022

 -------------------- cipc.x ------------------------
 --------------------------------------------------- 
 Reindex call
run_socinr: imult=1 irrep=1 
opening file =ciudgls.drt1.sp
opening file =ciudgls.drt1.sp
opening file =ciudgls.drt1.sp
opening file =ciudgls.drt1.sp
run_socinr: imult=3 irrep=1 
opening file =ciudgls.drt2.sp
opening file =ciudgls.drt2.sp
opening file =ciudgls.drt2.sp
opening file =ciudgls.drt2.sp
 copying /scratch/users/yshen57@jhu.edu/Molcas/min-A1/mrci/cidrtfl.so__A --> cidrtfl.so__A 
 copying /scratch/users/yshen57@jhu.edu/Molcas/min-A1/mrci/cidrtfl.so__A --> cidrtfl.so__A 
starting reindex.x -m 200000 > reindexls at Wed May  4 00:17:58 EDT 2022

 -------------------- reindex.x ------------------------
 --------------------------------------------------- 
 1      1        1           civfl_1_A             1      1    0+       1             1         civfl.so__A
1      1        2           civfl_1_A             1      1    0+       2    1005971284         civfl.so__A
1      1        3           civfl_1_A             1      1    0+       3    2011942567         civfl.so__A
1      1        4           civfl_1_A             1      1    0+       4    3017913850         civfl.so__A
3      1        1           civfl_3_A             1      3    0+       5    4023885133         civfl.so__A
3      1        1           civfl_3_A             1      3    1+       6    5029856416         civfl.so__A
3      1        1           civfl_3_A             1      3    1-       7    6035827699         civfl.so__A
3      1        2           civfl_3_A             1      3    0+       8    7041798982         civfl.so__A
3      1        2           civfl_3_A             1      3    1+       9    8047770265         civfl.so__A
3      1        2           civfl_3_A             1      3    1-      10    9053741548         civfl.so__A
3      1        3           civfl_3_A             1      3    0+      11   10059712831         civfl.so__A
3      1        3           civfl_3_A             1      3    1+      12   11065684114         civfl.so__A
3      1        3           civfl_3_A             1      3    1-      13   12071655397         civfl.so__A
3      1        4           civfl_3_A             1      3    0+      14   13077626680         civfl.so__A
3      1        4           civfl_3_A             1      3    1+      15   14083597963         civfl.so__A
3      1        4           civfl_3_A             1      3    1-      16   15089569246         civfl.so__A
 Executing ciudg.x  for gamma =A ...

 *** starting pciudg section *** 
nproc: 48 machinefile:  
assuming machinefile syntax: one host name per line optionally repeated
 section2, MPI_STARTUP:
 /software/apps/mpi/openmpi/3.1/intel/18.0/bin/mpirun -np 48  /home-4/yshen57@jhu.edu/Software/Chemistry/Columbus-7.0.2_OpenMolcas-18.09-col/Columbus/pciudg.x -m 19000 
 -------------------- pciudg.x ------------------------
 type of calculation:          mr-sdci
 number of configurations:     1005971283
 total mr-sdci energy             -286.1075210496 
 last mr-sdci energy change           0.0000000023 
 residual                            36.1040000000 
  type of calculation:          mr-sdci
 number of configurations:     1005971283
 total mr-sdci energy             -285.9511617004 
 last mr-sdci energy change           0.0302550000 
 residual                            35.9480000000 
  type of calculation:          mr-sdci
 number of configurations:     1005971283
 total mr-sdci energy             -285.9511617001 
 last mr-sdci energy change           0.0326620000 
 residual                            35.9480000000 
  type of calculation:          mr-sdci
 number of configurations:     1005971283
 total mr-sdci energy             -285.9511616994 
 last mr-sdci energy change           0.0820140000 
 residual                            35.9480000000 
  type of calculation:          mr-sdci
 number of configurations:     1005971283
 total mr-sdci energy             -285.9311479921 
 last mr-sdci energy change          -0.0200140000 
 residual                            35.9280000000 
  type of calculation:          mr-sdci
 number of configurations:     1005971283
 total mr-sdci energy             -285.9311479916 
 last mr-sdci energy change          -0.0200140000 
 residual                            35.9280000000 
  type of calculation:          mr-sdci
 number of configurations:     1005971283
 total mr-sdci energy             -285.9311479906 
 last mr-sdci energy change          -0.0200140000 
 residual                            35.9280000000 
  type of calculation:          mr-sdci
 number of configurations:     1005971283
 total mr-sdci energy             -285.9239920461 
 last mr-sdci energy change          -0.0071559000 
 residual                            35.9210000000 
  type of calculation:          mr-sdci
 number of configurations:     1005971283
 total mr-sdci energy             -285.9239920452 
 last mr-sdci energy change          -0.0071559000 
 residual                            35.9210000000 
  type of calculation:          mr-sdci
 number of configurations:     1005971283
 total mr-sdci energy             -285.9239920339 
 last mr-sdci energy change          -0.0071560000 
 residual                            35.9210000000 
  type of calculation:          mr-sdci
 number of configurations:     1005971283
 total mr-sdci energy             -285.9222281077 
 last mr-sdci energy change          -0.0017639000 
 residual                            35.9190000000 
  type of calculation:          mr-sdci
 number of configurations:     1005971283
 total mr-sdci energy             -285.9222280843 
 last mr-sdci energy change          -0.0017639000 
 residual                            35.9190000000 
  type of calculation:          mr-sdci
 number of configurations:     1005971283
 total mr-sdci energy             -285.9222280824 
 last mr-sdci energy change          -0.0017640000 
 residual                            35.9190000000 
  type of calculation:          mr-sdci
 number of configurations:     1005971283
 total mr-sdci energy             -285.9209067394 
 last mr-sdci energy change          -0.0013214000 
 residual                            35.9180000000 
  type of calculation:          mr-sdci
 number of configurations:     1005971283
 total mr-sdci energy             -285.9184994386 
 last mr-sdci energy change          -0.0037287000 
 residual                            35.9150000000 
  type of calculation:          mr-sdci
 number of configurations:     1005971283
 total mr-sdci energy             -285.8691474882 
 last mr-sdci energy change          -0.0530810000 
 residual                            35.8660000000 
  --------------------------------------------------- 
 ************* Results for Spin-Orbit CI gamma=A **************** 
Final spin-orbit CI state energies: 


-------------- HT matrix in AU ----------------  
-36.104123    
 0.000000    -35.917509    
 0.000000     0.000000    -35.915102    
 0.000000     0.000000     0.000000    -35.865750    
 0.000003     0.000009     0.000000     0.000000    -35.947764    
 0.000000     0.000000     0.000001     0.000000    -0.000000    -35.947764    
-0.000000    -0.000000     0.000003    -0.000002     0.000000     0.000000    -35.947764    
 0.000000    -0.000000    -0.000000     0.000006     0.000000    -0.000001     0.000000    -35.927750    
-0.000001     0.000001    -0.000000     0.000000     0.000001     0.000000     0.000000     0.000000    -35.927750    
-0.000006    -0.000002    -0.000000    -0.000000    -0.000000    -0.000000     0.000000    -0.000000    -0.000000    -35.927750    
 0.000016     0.000003    -0.000000     0.000000     0.000000    -0.000000    -0.000000     0.000000    -0.000000    -0.000001    -35.920594    
 0.000000     0.000000     0.000001    -0.000000     0.000000     0.000000     0.000007     0.000000     0.000000    -0.000000     0.000000    -35.920594    
-0.000000    -0.000000    -0.000002     0.000002     0.000000    -0.000007     0.000000     0.000001     0.000000     0.000000     0.000000    -0.000000    -35.920594    
-0.000011     0.000004     0.000000    -0.000000     0.000000     0.000000     0.000000     0.000000     0.000003    -0.000000     0.000000     0.000000     0.000000    -35.918830    
-0.000000     0.000000    -0.000001    -0.000000    -0.000000     0.000000    -0.000006    -0.000003     0.000000     0.000000    -0.000000     0.000000    -0.000005    -0.000000    -35.918830    
 0.000000    -0.000000     0.000002     0.000000    -0.000000     0.000006     0.000000     0.000000    -0.000000     0.000000    -0.000000     0.000005     0.000000     0.000000     0.000000    -35.918830    
-------------- HT matrix in eV ---------------- 
 -982.443   
    0.000    -977.365   
    0.000       0.000    -977.300   
    0.000       0.000       0.000    -975.957   
    0.000       0.000       0.000       0.000    -978.188   
    0.000       0.000       0.000       0.000      -0.000    -978.188   
   -0.000      -0.000       0.000      -0.000       0.000       0.000    -978.188   
    0.000      -0.000      -0.000       0.000       0.000      -0.000       0.000    -977.644   
   -0.000       0.000      -0.000       0.000       0.000       0.000       0.000       0.000    -977.644   
   -0.000      -0.000      -0.000      -0.000      -0.000      -0.000       0.000      -0.000      -0.000    -977.644   
    0.000       0.000      -0.000       0.000       0.000      -0.000      -0.000       0.000      -0.000      -0.000    -977.449   
    0.000       0.000       0.000      -0.000       0.000       0.000       0.000       0.000       0.000      -0.000       0.000    -977.449   
   -0.000      -0.000      -0.000       0.000       0.000      -0.000       0.000       0.000       0.000       0.000       0.000      -0.000    -977.449   
   -0.000       0.000       0.000      -0.000       0.000       0.000       0.000       0.000       0.000      -0.000       0.000       0.000       0.000    -977.401   
   -0.000       0.000      -0.000      -0.000      -0.000       0.000      -0.000      -0.000       0.000       0.000      -0.000       0.000      -0.000      -0.000    -977.401   
    0.000      -0.000       0.000       0.000      -0.000       0.000       0.000       0.000      -0.000       0.000      -0.000       0.000       0.000       0.000       0.000    -977.401   
-------------- HT matrix in cm-1 ------------------- 
Eref = -36.10412343
     0.00   
     0.00    40957.17   
     0.00        0.00    41485.52   
     0.00        0.00        0.00    52317.04   
     0.76        1.96        0.00        0.00    34316.97   
     0.00        0.00        0.21        0.04        0.00    34316.97   
     0.00        0.00        0.66       -0.36        0.00        0.00    34316.97   
     0.00        0.00       -0.00        1.22        0.00       -0.19        0.08    38709.48   
    -0.31        0.19        0.00        0.00        0.19        0.00        0.00        0.00    38709.48   
    -1.25       -0.47        0.00        0.00       -0.08        0.00        0.00        0.00        0.00    38709.48   
     3.46        0.57        0.00        0.00        0.00        0.00        0.00        0.00       -0.03       -0.25    40280.03   
     0.00        0.00        0.15       -0.06        0.00        0.00        1.59        0.03        0.00        0.00        0.00    40280.03   
     0.00        0.00       -0.49        0.43        0.00       -1.59        0.00        0.25        0.00        0.00        0.00        0.00    40280.03   
    -2.48        0.83        0.00        0.00        0.00        0.00        0.00        0.00        0.75        0.00        0.00        0.00        0.00    40667.17   
     0.00        0.00       -0.12       -0.11        0.00        0.00       -1.36       -0.75        0.00        0.00        0.00        0.00       -1.09        0.00    40667.17   
     0.00        0.00        0.34        0.04        0.00        1.36        0.00        0.00        0.00        0.00        0.00        1.09        0.00        0.00        0.00    40667.17   


Spin-Orbit CI: perturbational estimate of Spin-Orbit CI energies and wavefunctions 
                SO   1         SO   2         SO   3         SO   4         SO   5         SO   6         SO   7         SO   8

   energy  -286.10752105  -285.95116170  -285.95116170  -285.95116170  -285.93114799  -285.93114799  -285.93114799  -285.92399205
 
   NR   1    -0.99999999     0.00000000    -0.00000000     0.00002206     0.00000000    -0.00000137    -0.00003315     0.00000000
   NR   2    -0.00000000    -0.00000000     0.00000000    -0.00029558    -0.00000000    -0.00012307     0.00018761    -0.00000000
   NR   3     0.00000000     0.00009664    -0.00000568    -0.00000000    -0.00000162     0.00000000    -0.00000000     0.00042210
   NR   4    -0.00000000    -0.00001901    -0.00000690    -0.00000000     0.00008941    -0.00000000     0.00000000    -0.00003501
   NR   5     0.00002206     0.00000011    -0.00000015     0.99999995     0.00000000     0.00004541    -0.00000989     0.00000000
   NR   6     0.00000000    -0.24222120     0.97022099     0.00000017     0.00004256    -0.00000000     0.00000000    -0.00024994
   NR   7    -0.00000000    -0.97022099    -0.24222120     0.00000007    -0.00001860     0.00000000    -0.00000000    -0.00009192
   NR   8    -0.00000000     0.00000781     0.00004586     0.00000000    -0.99999991     0.00000351    -0.00000594     0.00014298
   NR   9    -0.00000789    -0.00000000     0.00000000    -0.00004260     0.00000227     0.98046119     0.19671224     0.00000000
   NR  10    -0.00003225     0.00000000    -0.00000000     0.00001869    -0.00000652    -0.19671224     0.98046123    -0.00000000
   NR  11     0.00008595    -0.00000000    -0.00000000     0.00000002    -0.00000000    -0.00001357     0.00016070     0.00000078
   NR  12     0.00000000     0.00025839     0.00006455    -0.00000000     0.00001828    -0.00000000     0.00000000    -0.34306489
   NR  13    -0.00000000    -0.00006454     0.00025839     0.00000000     0.00015998    -0.00000000     0.00000000     0.93930735
   NR  14    -0.00006102     0.00000000    -0.00000000     0.00000005    -0.00000000    -0.00037525    -0.00007512    -0.00000000
   NR  15    -0.00000000    -0.00020752    -0.00005176     0.00000000    -0.00038264     0.00000000    -0.00000000     0.00264152
   NR  16     0.00000000     0.00005176    -0.00020752    -0.00000000     0.00000025     0.00000000     0.00000000     0.00096525

                SO   9         SO  10         SO  11         SO  12         SO  13         SO  14         SO  15         SO  16

   energy  -285.92399205  -285.92399203  -285.92222811  -285.92222808  -285.92222808  -285.92090674  -285.91849944  -285.86914749
 
   NR   1     0.00000000     0.00008596     0.00006102     0.00000000    -0.00000000     0.00000009    -0.00000000    -0.00000000
   NR   2    -0.00000000    -0.00084494     0.00286212    -0.00000000     0.00000000    -0.99999548    -0.00000000     0.00000000
   NR   3     0.00002527    -0.00000000     0.00000000    -0.00042865     0.00009353     0.00000000    -0.99999981    -0.00000000
   NR   4    -0.00000768     0.00000000    -0.00000000    -0.00000467     0.00000886     0.00000000    -0.00000002     1.00000000
   NR   5     0.00000000    -0.00000027     0.00000088    -0.00000000    -0.00000000    -0.00029558    -0.00000000     0.00000000
   NR   6    -0.00009197     0.00000000    -0.00000000     0.00021234     0.00002549    -0.00000000    -0.00002911     0.00000208
   NR   7     0.00024995    -0.00000000     0.00000000     0.00002543    -0.00021235     0.00000000    -0.00009245    -0.00002012
   NR   8     0.00007167    -0.00000000     0.00000000     0.00004470    -0.00038047     0.00000000     0.00000163     0.00008942
   NR   9     0.00000000    -0.00001837    -0.00038246    -0.00000000    -0.00000000    -0.00008483     0.00000000     0.00000000
   NR  10    -0.00000000    -0.00016005    -0.00000043    -0.00000000     0.00000000     0.00020828     0.00000000    -0.00000000
   NR  11     0.00000021     0.99999963     0.00000480    -0.00000000    -0.00000000    -0.00084490     0.00000000     0.00000000
   NR  12     0.93930745     0.00000007    -0.00000000     0.00279312     0.00032495    -0.00000000    -0.00012221    -0.00000478
   NR  13     0.34306490    -0.00000081     0.00000000     0.00032550    -0.00279363     0.00000000     0.00040474     0.00003553
   NR  14    -0.00000000     0.00000240    -0.99999583     0.00000003    -0.00000010    -0.00286209    -0.00000000    -0.00000000
   NR  15     0.00096576    -0.00000000    -0.00000010    -0.11585936     0.99326154    -0.00000000     0.00014368    -0.00000921
   NR  16    -0.00264115     0.00000000     0.00000002     0.99326153     0.11585942     0.00000000    -0.00041458     0.00000363
rescaling new expansion vector ... old norm=   4466.5883848364

 model space basis from reindexls .. 
 --SO-CI-------         -----NR-CI-------             ---model space---- 
 Gamma  root             S   irrep   root                S   ms* 
A          1             1   A         1                 1   0+
A          2             1   A         2                 1   0+
A          3             1   A         3                 1   0+
A          4             1   A         4                 1   0+
A          5             3   A         1                 3   0+
A          6             3   A         1                 3   1+
A          7             3   A         1                 3   1-
A          8             3   A         2                 3   0+
A          9             3   A         2                 3   1+
A         10             3   A         2                 3   1-
A         11             3   A         3                 3   0+
A         12             3   A         3                 3   1+
A         13             3   A         3                 3   1-
A         14             3   A         4                 3   0+
A         15             3   A         4                 3   1+
A         16             3   A         4                 3   1-

************************** SUMMARY *********************************

--------------  SO matrix for irrep A in eV ---------------- 
|1,0+;1,A,1>  -982.443   
|1,0+;1,A,2>     0.000    -977.365   
|1,0+;1,A,3>     0.000       0.000    -977.300   
|1,0+;1,A,4>     0.000       0.000       0.000    -975.957   
|3,0+;3,A,1>     0.000       0.000       0.000       0.000    -978.188   
|3,1+;3,A,1>     0.000       0.000       0.000       0.000      -0.000    -978.188   
|3,1-;3,A,1>    -0.000      -0.000       0.000      -0.000       0.000       0.000    -978.188   
|3,0+;3,A,2>     0.000      -0.000      -0.000       0.000       0.000      -0.000       0.000    -977.644   
|3,1+;3,A,2>    -0.000       0.000      -0.000       0.000       0.000       0.000       0.000       0.000    -977.644   
|3,1-;3,A,2>    -0.000      -0.000      -0.000      -0.000      -0.000      -0.000       0.000      -0.000      -0.000    -977.644   
|3,0+;3,A,3>     0.000       0.000      -0.000       0.000       0.000      -0.000      -0.000       0.000      -0.000      -0.000    -977.449   
|3,1+;3,A,3>     0.000       0.000       0.000      -0.000       0.000       0.000       0.000       0.000       0.000      -0.000       0.000    -977.449   
|3,1-;3,A,3>    -0.000      -0.000      -0.000       0.000       0.000      -0.000       0.000       0.000       0.000       0.000       0.000      -0.000    -977.449   
|3,0+;3,A,4>    -0.000       0.000       0.000      -0.000       0.000       0.000       0.000       0.000       0.000      -0.000       0.000       0.000       0.000    -977.401   
|3,1+;3,A,4>    -0.000       0.000      -0.000      -0.000      -0.000       0.000      -0.000      -0.000       0.000       0.000      -0.000       0.000      -0.000      -0.000    -977.401   
|3,1-;3,A,4>     0.000      -0.000       0.000       0.000      -0.000       0.000       0.000       0.000      -0.000       0.000      -0.000       0.000       0.000       0.000       0.000    -977.401   

--------------  SO matrix for irrep A in cm-1 ------------------- 
Eref = -36.10412343
|1,0+;1,A,1>      0.00   
|1,0+;1,A,2>      0.00    40957.17   
|1,0+;1,A,3>      0.00        0.00    41485.52   
|1,0+;1,A,4>      0.00        0.00        0.00    52317.04   
|3,0+;3,A,1>      0.76        1.96        0.00        0.00    34316.97   
|3,1+;3,A,1>      0.00        0.00        0.21        0.04        0.00    34316.97   
|3,1-;3,A,1>      0.00        0.00        0.66       -0.36        0.00        0.00    34316.97   
|3,0+;3,A,2>      0.00        0.00       -0.00        1.22        0.00       -0.19        0.08    38709.48   
|3,1+;3,A,2>     -0.31        0.19        0.00        0.00        0.19        0.00        0.00        0.00    38709.48   
|3,1-;3,A,2>     -1.25       -0.47        0.00        0.00       -0.08        0.00        0.00        0.00        0.00    38709.48   
|3,0+;3,A,3>      3.46        0.57        0.00        0.00        0.00        0.00        0.00        0.00       -0.03       -0.25    40280.03   
|3,1+;3,A,3>      0.00        0.00        0.15       -0.06        0.00        0.00        1.59        0.03        0.00        0.00        0.00    40280.03   
|3,1-;3,A,3>      0.00        0.00       -0.49        0.43        0.00       -1.59        0.00        0.25        0.00        0.00        0.00        0.00    40280.03   
|3,0+;3,A,4>     -2.48        0.83        0.00        0.00        0.00        0.00        0.00        0.00        0.75        0.00        0.00        0.00        0.00    40667.17   
|3,1+;3,A,4>      0.00        0.00       -0.12       -0.11        0.00        0.00       -1.36       -0.75        0.00        0.00        0.00        0.00       -1.09        0.00    40667.17   
|3,1-;3,A,4>      0.00        0.00        0.34        0.04        0.00        1.36        0.00        0.00        0.00        0.00        0.00        1.09        0.00        0.00        0.00    40667.17   


 ** perturbational estimate of Spin-Orbit CI energies and wavefunctions in model space basis** 

                      A  1         A  2         A  3         A  4         A  5         A  6         A  7         A  8

            energy  -286.10752105  -285.95116170  -285.95116170  -285.95116170  -285.93114799  -285.93114799  -285.93114799  -285.92399205
          
   |1,0+;1,A,1>    -0.99999999     0.00000000    -0.00000000     0.00002206     0.00000000    -0.00000137    -0.00003315     0.00000000
   |1,0+;1,A,2>    -0.00000000    -0.00000000     0.00000000    -0.00029558    -0.00000000    -0.00012307     0.00018761    -0.00000000
   |1,0+;1,A,3>     0.00000000     0.00009664    -0.00000568    -0.00000000    -0.00000162     0.00000000    -0.00000000     0.00042210
   |1,0+;1,A,4>    -0.00000000    -0.00001901    -0.00000690    -0.00000000     0.00008941    -0.00000000     0.00000000    -0.00003501
   |3,0+;3,A,1>     0.00002206     0.00000011    -0.00000015     0.99999995     0.00000000     0.00004541    -0.00000989     0.00000000
   |3,1+;3,A,1>     0.00000000    -0.24222120     0.97022099     0.00000017     0.00004256    -0.00000000     0.00000000    -0.00024994
   |3,1-;3,A,1>    -0.00000000    -0.97022099    -0.24222120     0.00000007    -0.00001860     0.00000000    -0.00000000    -0.00009192
   |3,0+;3,A,2>    -0.00000000     0.00000781     0.00004586     0.00000000    -0.99999991     0.00000351    -0.00000594     0.00014298
   |3,1+;3,A,2>    -0.00000789    -0.00000000     0.00000000    -0.00004260     0.00000227     0.98046119     0.19671224     0.00000000
   |3,1-;3,A,2>    -0.00003225     0.00000000    -0.00000000     0.00001869    -0.00000652    -0.19671224     0.98046123    -0.00000000
   |3,0+;3,A,3>     0.00008595    -0.00000000    -0.00000000     0.00000002    -0.00000000    -0.00001357     0.00016070     0.00000078
   |3,1+;3,A,3>     0.00000000     0.00025839     0.00006455    -0.00000000     0.00001828    -0.00000000     0.00000000    -0.34306489
   |3,1-;3,A,3>    -0.00000000    -0.00006454     0.00025839     0.00000000     0.00015998    -0.00000000     0.00000000     0.93930735
   |3,0+;3,A,4>    -0.00006102     0.00000000    -0.00000000     0.00000005    -0.00000000    -0.00037525    -0.00007512    -0.00000000
   |3,1+;3,A,4>    -0.00000000    -0.00020752    -0.00005176     0.00000000    -0.00038264     0.00000000    -0.00000000     0.00264152
   |3,1-;3,A,4>     0.00000000     0.00005176    -0.00020752    -0.00000000     0.00000025     0.00000000     0.00000000     0.00096525

                      A  9         A 10         A 11         A 12         A 13         A 14         A 15         A 16

            energy  -285.92399205  -285.92399203  -285.92222811  -285.92222808  -285.92222808  -285.92090674  -285.91849944  -285.86914749
          
   |1,0+;1,A,1>     0.00000000     0.00008596     0.00006102     0.00000000    -0.00000000     0.00000009    -0.00000000    -0.00000000
   |1,0+;1,A,2>    -0.00000000    -0.00084494     0.00286212    -0.00000000     0.00000000    -0.99999548    -0.00000000     0.00000000
   |1,0+;1,A,3>     0.00002527    -0.00000000     0.00000000    -0.00042865     0.00009353     0.00000000    -0.99999981    -0.00000000
   |1,0+;1,A,4>    -0.00000768     0.00000000    -0.00000000    -0.00000467     0.00000886     0.00000000    -0.00000002     1.00000000
   |3,0+;3,A,1>     0.00000000    -0.00000027     0.00000088    -0.00000000    -0.00000000    -0.00029558    -0.00000000     0.00000000
   |3,1+;3,A,1>    -0.00009197     0.00000000    -0.00000000     0.00021234     0.00002549    -0.00000000    -0.00002911     0.00000208
   |3,1-;3,A,1>     0.00024995    -0.00000000     0.00000000     0.00002543    -0.00021235     0.00000000    -0.00009245    -0.00002012
   |3,0+;3,A,2>     0.00007167    -0.00000000     0.00000000     0.00004470    -0.00038047     0.00000000     0.00000163     0.00008942
   |3,1+;3,A,2>     0.00000000    -0.00001837    -0.00038246    -0.00000000    -0.00000000    -0.00008483     0.00000000     0.00000000
   |3,1-;3,A,2>    -0.00000000    -0.00016005    -0.00000043    -0.00000000     0.00000000     0.00020828     0.00000000    -0.00000000
   |3,0+;3,A,3>     0.00000021     0.99999963     0.00000480    -0.00000000    -0.00000000    -0.00084490     0.00000000     0.00000000
   |3,1+;3,A,3>     0.93930745     0.00000007    -0.00000000     0.00279312     0.00032495    -0.00000000    -0.00012221    -0.00000478
   |3,1-;3,A,3>     0.34306490    -0.00000081     0.00000000     0.00032550    -0.00279363     0.00000000     0.00040474     0.00003553
   |3,0+;3,A,4>    -0.00000000     0.00000240    -0.99999583     0.00000003    -0.00000010    -0.00286209    -0.00000000    -0.00000000
   |3,1+;3,A,4>     0.00096576    -0.00000000    -0.00000010    -0.11585936     0.99326154    -0.00000000     0.00014368    -0.00000921
   |3,1-;3,A,4>    -0.00264115     0.00000000     0.00000002     0.99326153     0.11585942     0.00000000    -0.00041458     0.00000363
rescaling new expansion vector ... old norm=   4466.5883848364

Sorted Energies:
1  -286.10752105 
2  -285.95116170 
3  -285.95116170 
4  -285.95116170 
5  -285.93114799 
6  -285.93114799 
7  -285.93114799 
8  -285.92399205 
9  -285.92399205 
10  -285.92399203 
11  -285.92222811 
12  -285.92222808 
13  -285.92222808 
14  -285.92090674 
15  -285.91849944 
16  -285.86914749 
Not computing transition moment with identical bra and ket.
 Calculating transition moment for (1,1) => (1,2)
 starting transci.x -m 200000 at Wed May  4 02:15:51 EDT 2022

 -------------------- transci.x ------------------------

                          State No. 1            State No. 2

   Space symmetry:           a                      a   
   No. of CSFs:          ********               ********
   State energies:      -286.10752105          -285.92090676  a.u.

   Transition energy:     0.18661429  a.u.
   Transition energy:     5.08        eV

       Transition moment components:

                 x            y            z

electron         -0.009108     0.049415    -0.000000  e*bohr
frozen core       0.000000     0.000000     0.000000  e*bohr
total (elec)     -0.009108     0.049415    -0.000000  e*bohr


   Tr.dipole length:     0.050248    e*bohr
   Oscillator strength :  0.000314
   Einstein A coef.:     0.3514E+06  1/sec
   Einstein B coef.:     0.1025E+07  sec/g

                 x            y            z

<L> electron     0.000000    -0.000000    -0.338053  e*bohr


   <L> value length:     0.338053    e*bohr
 --------------------------------------------------- 
  Calculating transition moment for (1,1) => (1,3)
 starting transci.x -m 200000 at Wed May  4 02:18:03 EDT 2022

 -------------------- transci.x ------------------------

                          State No. 1            State No. 2

   Space symmetry:           a                      a   
   No. of CSFs:          ********               ********
   State energies:      -286.10752105          -285.91849944  a.u.

   Transition energy:     0.18902161  a.u.
   Transition energy:     5.14        eV

       Transition moment components:

                 x            y            z

electron         -0.000000     0.000000     0.323314  e*bohr
frozen core       0.000000     0.000000     0.000000  e*bohr
total (elec)     -0.000000     0.000000     0.323314  e*bohr


   Tr.dipole length:     0.323314    e*bohr
   Oscillator strength :  0.013173
   Einstein A coef.:     0.1512E+08  1/sec
   Einstein B coef.:     0.4242E+08  sec/g

                 x            y            z

<L> electron    -0.014212    -0.485780     0.000000  e*bohr


   <L> value length:     0.485988    e*bohr
 --------------------------------------------------- 
  Calculating transition moment for (1,1) => (1,4)
 starting transci.x -m 200000 at Wed May  4 02:20:16 EDT 2022

 -------------------- transci.x ------------------------

                          State No. 1            State No. 2

   Space symmetry:           a                      a   
   No. of CSFs:          ********               ********
   State energies:      -286.10752105          -285.86914749  a.u.

   Transition energy:     0.23837356  a.u.
   Transition energy:     6.49        eV

       Transition moment components:

                 x            y            z

electron          0.000000    -0.000000    -0.009114  e*bohr
frozen core       0.000000     0.000000     0.000000  e*bohr
total (elec)      0.000000    -0.000000    -0.009114  e*bohr


   Tr.dipole length:     0.009114    e*bohr
   Oscillator strength :  0.000013
   Einstein A coef.:     0.2410E+05  1/sec
   Einstein B coef.:     0.3371E+05  sec/g

                 x            y            z

<L> electron    -0.465733     0.016954    -0.000000  e*bohr


   <L> value length:     0.466042    e*bohr
 --------------------------------------------------- 
 Not computing transition moment with identical bra and ket.
 Calculating transition moment for (1,2) => (1,3)
 starting transci.x -m 200000 at Wed May  4 02:22:28 EDT 2022

 -------------------- transci.x ------------------------

                          State No. 1            State No. 2

   Space symmetry:           a                      a   
   No. of CSFs:          ********               ********
   State energies:      -285.92090676          -285.91849944  a.u.

   Transition energy:     0.00240732  a.u.
   Transition energy:     0.07        eV

       Transition moment components:

                 x            y            z

electron         -0.000000     0.000000     0.061290  e*bohr
frozen core       0.000000     0.000000     0.000000  e*bohr
total (elec)     -0.000000     0.000000     0.061290  e*bohr


   Tr.dipole length:     0.061290    e*bohr
   Oscillator strength :  0.000006
   Einstein A coef.:     0.1122E+01  1/sec
   Einstein B coef.:     0.1524E+07  sec/g

                 x            y            z

<L> electron    -0.123825     0.006643    -0.000000  e*bohr


   <L> value length:     0.124003    e*bohr
 --------------------------------------------------- 
  Calculating transition moment for (1,2) => (1,4)
 starting transci.x -m 200000 at Wed May  4 02:24:40 EDT 2022

 -------------------- transci.x ------------------------

                          State No. 1            State No. 2

   Space symmetry:           a                      a   
   No. of CSFs:          ********               ********
   State energies:      -285.92090676          -285.86914749  a.u.

   Transition energy:     0.05175927  a.u.
   Transition energy:     1.41        eV

       Transition moment components:

                 x            y            z

electron         -0.000000     0.000000     0.155680  e*bohr
frozen core       0.000000     0.000000     0.000000  e*bohr
total (elec)     -0.000000     0.000000     0.155680  e*bohr


   Tr.dipole length:     0.155680    e*bohr
   Oscillator strength :  0.000836
   Einstein A coef.:     0.7198E+05  1/sec
   Einstein B coef.:     0.9836E+07  sec/g

                 x            y            z

<L> electron     0.020479    -0.637522     0.000000  e*bohr


   <L> value length:     0.637851    e*bohr
 --------------------------------------------------- 
 Not computing transition moment with identical bra and ket.
 Calculating transition moment for (1,3) => (1,4)
 starting transci.x -m 200000 at Wed May  4 02:26:52 EDT 2022

 -------------------- transci.x ------------------------

                          State No. 1            State No. 2

   Space symmetry:           a                      a   
   No. of CSFs:          ********               ********
   State energies:      -285.91849944          -285.86914749  a.u.

   Transition energy:     0.04935195  a.u.
   Transition energy:     1.34        eV

       Transition moment components:

                 x            y            z

electron         -0.014375    -0.031936     0.000000  e*bohr
frozen core       0.000000     0.000000     0.000000  e*bohr
total (elec)     -0.014375    -0.031936     0.000000  e*bohr


   Tr.dipole length:     0.035023    e*bohr
   Oscillator strength :  0.000040
   Einstein A coef.:     0.3158E+04  1/sec
   Einstein B coef.:     0.4978E+06  sec/g

                 x            y            z

<L> electron    -0.000000     0.000000     0.126879  e*bohr


   <L> value length:     0.126879    e*bohr
 --------------------------------------------------- 
 Not computing transition moment with identical bra and ket.
Not computing transition moment with identical bra and ket.
 Calculating transition moment for (2,1) => (2,2)
 starting transci.x -m 200000 at Wed May  4 02:29:04 EDT 2022

 -------------------- transci.x ------------------------

                          State No. 1            State No. 2

   Space symmetry:           a                      a   
   No. of CSFs:          ********               ********
   State energies:      -285.95116170          -285.93114799  a.u.

   Transition energy:     0.02001371  a.u.
   Transition energy:     0.54        eV

       Transition moment components:

                 x            y            z

electron         -0.000000     0.000000     0.166142  e*bohr
frozen core       0.000000     0.000000     0.000000  e*bohr
total (elec)     -0.000000     0.000000     0.166142  e*bohr


   Tr.dipole length:     0.166142    e*bohr
   Oscillator strength :  0.000368
   Einstein A coef.:     0.4739E+04  1/sec
   Einstein B coef.:     0.1120E+08  sec/g

                 x            y            z

<L> electron    -0.017496     0.942105    -0.000000  e*bohr


   <L> value length:     0.942268    e*bohr
 --------------------------------------------------- 
  Calculating transition moment for (2,1) => (2,3)
 starting transci.x -m 200000 at Wed May  4 02:33:14 EDT 2022

 -------------------- transci.x ------------------------

                          State No. 1            State No. 2

   Space symmetry:           a                      a   
   No. of CSFs:          ********               ********
   State energies:      -285.95116170          -285.92399203  a.u.

   Transition energy:     0.02716966  a.u.
   Transition energy:     0.74        eV

       Transition moment components:

                 x            y            z

electron         -0.047618    -0.065770     0.000000  e*bohr
frozen core       0.000000     0.000000     0.000000  e*bohr
total (elec)     -0.047618    -0.065770     0.000000  e*bohr


   Tr.dipole length:     0.081198    e*bohr
   Oscillator strength :  0.000119
   Einstein A coef.:     0.2832E+04  1/sec
   Einstein B coef.:     0.2676E+07  sec/g

                 x            y            z

<L> electron    -0.000000     0.000000     0.112659  e*bohr


   <L> value length:     0.112659    e*bohr
 --------------------------------------------------- 
  Calculating transition moment for (2,1) => (2,4)
 starting transci.x -m 200000 at Wed May  4 02:37:20 EDT 2022

 -------------------- transci.x ------------------------

                          State No. 1            State No. 2

   Space symmetry:           a                      a   
   No. of CSFs:          ********               ********
   State energies:      -285.95116170          -285.92222810  a.u.

   Transition energy:     0.02893360  a.u.
   Transition energy:     0.79        eV

       Transition moment components:

                 x            y            z

electron          0.223376     0.040695     0.000000  e*bohr
frozen core       0.000000     0.000000     0.000000  e*bohr
total (elec)      0.223376     0.040695     0.000000  e*bohr


   Tr.dipole length:     0.227053    e*bohr
   Oscillator strength :  0.000994
   Einstein A coef.:     0.2675E+05  1/sec
   Einstein B coef.:     0.2092E+08  sec/g

                 x            y            z

<L> electron     0.000000    -0.000000    -0.093024  e*bohr


   <L> value length:     0.093024    e*bohr
 --------------------------------------------------- 
 Not computing transition moment with identical bra and ket.
 Calculating transition moment for (2,2) => (2,3)
 starting transci.x -m 200000 at Wed May  4 02:41:27 EDT 2022

 -------------------- transci.x ------------------------

                          State No. 1            State No. 2

   Space symmetry:           a                      a   
   No. of CSFs:          ********               ********
   State energies:      -285.93114799          -285.92399203  a.u.

   Transition energy:     0.00715596  a.u.
   Transition energy:     0.19        eV

       Transition moment components:

                 x            y            z

electron          0.000000    -0.000000    -0.086545  e*bohr
frozen core       0.000000     0.000000     0.000000  e*bohr
total (elec)      0.000000    -0.000000    -0.086545  e*bohr


   Tr.dipole length:     0.086545    e*bohr
   Oscillator strength :  0.000036
   Einstein A coef.:     0.5879E+02  1/sec
   Einstein B coef.:     0.3040E+07  sec/g

                 x            y            z

<L> electron    -0.078808    -0.255503     0.000000  e*bohr


   <L> value length:     0.267381    e*bohr
 --------------------------------------------------- 
  Calculating transition moment for (2,2) => (2,4)
 starting transci.x -m 200000 at Wed May  4 02:45:31 EDT 2022

 -------------------- transci.x ------------------------

                          State No. 1            State No. 2

   Space symmetry:           a                      a   
   No. of CSFs:          ********               ********
   State energies:      -285.93114799          -285.92222810  a.u.

   Transition energy:     0.00891989  a.u.
   Transition energy:     0.24        eV

       Transition moment components:

                 x            y            z

electron          0.000000     0.000000     0.013268  e*bohr
frozen core       0.000000     0.000000     0.000000  e*bohr
total (elec)      0.000000     0.000000     0.013268  e*bohr


   Tr.dipole length:     0.013268    e*bohr
   Oscillator strength :  0.000001
   Einstein A coef.:     0.2676E+01  1/sec
   Einstein B coef.:     0.7144E+05  sec/g

                 x            y            z

<L> electron     0.070239    -0.408068     0.000000  e*bohr


   <L> value length:     0.414069    e*bohr
 --------------------------------------------------- 
 Not computing transition moment with identical bra and ket.
 Calculating transition moment for (2,3) => (2,4)
 starting transci.x -m 200000 at Wed May  4 02:49:28 EDT 2022

 -------------------- transci.x ------------------------

                          State No. 1            State No. 2

   Space symmetry:           a                      a   
   No. of CSFs:          ********               ********
   State energies:      -285.92399203          -285.92222810  a.u.

   Transition energy:     0.00176393  a.u.
   Transition energy:     0.05        eV

       Transition moment components:

                 x            y            z

electron          1.983015     0.008595     0.000000  e*bohr
frozen core       0.000000     0.000000     0.000000  e*bohr
total (elec)      1.983015     0.008595     0.000000  e*bohr


   Tr.dipole length:     1.983034    e*bohr
   Oscillator strength :  0.004624
   Einstein A coef.:     0.4623E+03  1/sec
   Einstein B coef.:     0.1596E+10  sec/g

                 x            y            z

<L> electron     0.000000    -0.000000    -0.072544  e*bohr


   <L> value length:     0.072544    e*bohr
 --------------------------------------------------- 
 Not computing transition moment with identical bra and ket.
 --- ci properties for state 1 of  DRT 1 ----
starting exptvl.x -m 200000  at Wed May  4 02:53:24 EDT 2022

 -------------------- exptvl.x ------------------------
  === dipole moment === 
                     X               Y               Z   
   orign x       0.00000000      0.00000000      0.00000000
   orign y       0.00000000      0.00000000      0.00000000
   orign z       0.00000000      0.00000000      0.00000000
   nuclear      -0.85429079     -0.42465299     -0.00000122
   electronic    0.56539040     -0.05124856      0.00000131
   total        -0.28890039     -0.47590155      0.00000009
   total Dipole moment =   1.41506204    Debye
 !timer: exptvl required                 cpu_time=     0.184 walltime=     0.511
 --------------------------------------------------- 
  --- ci properties for state 2 of  DRT 1 ----
starting exptvl.x -m 200000  at Wed May  4 02:53:25 EDT 2022

 -------------------- exptvl.x ------------------------
  === dipole moment === 
                     X               Y               Z   
   orign x       0.00000000      0.00000000      0.00000000
   orign y       0.00000000      0.00000000      0.00000000
   orign z       0.00000000      0.00000000      0.00000000
   nuclear      -0.85429079     -0.42465299     -0.00000122
   electronic    4.44330291     -0.01391060      0.00000163
   total         3.58901212     -0.43856359      0.00000041
   total Dipole moment =   9.19022280    Debye
 --------------------------------------------------- 
  --- ci properties for state 3 of  DRT 1 ----
starting exptvl.x -m 200000  at Wed May  4 02:53:25 EDT 2022

 -------------------- exptvl.x ------------------------
  === dipole moment === 
                     X               Y               Z   
   orign x       0.00000000      0.00000000      0.00000000
   orign y       0.00000000      0.00000000      0.00000000
   orign z       0.00000000      0.00000000      0.00000000
   nuclear      -0.85429079     -0.42465299     -0.00000122
   electronic    0.27027380     -0.02619261      0.00000128
   total        -0.58401699     -0.45084560      0.00000006
   total Dipole moment =   1.87528304    Debye
 --------------------------------------------------- 
  --- ci properties for state 4 of  DRT 1 ----
starting exptvl.x -m 200000  at Wed May  4 02:53:25 EDT 2022

 -------------------- exptvl.x ------------------------
  === dipole moment === 
                     X               Y               Z   
   orign x       0.00000000      0.00000000      0.00000000
   orign y       0.00000000      0.00000000      0.00000000
   orign z       0.00000000      0.00000000      0.00000000
   nuclear      -0.85429079     -0.42465299     -0.00000122
   electronic    5.57181392     -0.14305091      0.00000176
   total         4.71752313     -0.56770390      0.00000054
   total Dipole moment =  12.07727014    Debye
 --------------------------------------------------- 
  --- ci properties for state 1 of  DRT 2 ----
starting exptvl.x -m 200000  at Wed May  4 02:53:26 EDT 2022

 -------------------- exptvl.x ------------------------
  === dipole moment === 
                     X               Y               Z   
   orign x       0.00000000      0.00000000      0.00000000
   orign y       0.00000000      0.00000000      0.00000000
   orign z       0.00000000      0.00000000      0.00000000
   nuclear      -0.85429079     -0.42465299     -0.00000122
   electronic    0.49528033     -0.02147093      0.00000129
   total        -0.35901046     -0.44612392      0.00000007
   total Dipole moment =   1.45550379    Debye
 --------------------------------------------------- 
  --- ci properties for state 2 of  DRT 2 ----
starting exptvl.x -m 200000  at Wed May  4 02:53:26 EDT 2022

 -------------------- exptvl.x ------------------------
  === dipole moment === 
                     X               Y               Z   
   orign x       0.00000000      0.00000000      0.00000000
   orign y       0.00000000      0.00000000      0.00000000
   orign z       0.00000000      0.00000000      0.00000000
   nuclear      -0.85429079     -0.42465299     -0.00000122
   electronic    0.06031628     -0.02765421      0.00000127
   total        -0.79397451     -0.45230720      0.00000005
   total Dipole moment =   2.32257637    Debye
 --------------------------------------------------- 
  --- ci properties for state 3 of  DRT 2 ----
starting exptvl.x -m 200000  at Wed May  4 02:53:26 EDT 2022

 -------------------- exptvl.x ------------------------
  === dipole moment === 
                     X               Y               Z   
   orign x       0.00000000      0.00000000      0.00000000
   orign y       0.00000000      0.00000000      0.00000000
   orign z       0.00000000      0.00000000      0.00000000
   nuclear      -0.85429079     -0.42465299     -0.00000122
   electronic    2.70806901      0.05852008      0.00000147
   total         1.85377822     -0.36613291      0.00000025
   total Dipole moment =   4.80286122    Debye
 --------------------------------------------------- 
  --- ci properties for state 4 of  DRT 2 ----
starting exptvl.x -m 200000  at Wed May  4 02:53:26 EDT 2022

 -------------------- exptvl.x ------------------------
  === dipole moment === 
                     X               Y               Z   
   orign x       0.00000000      0.00000000      0.00000000
   orign y       0.00000000      0.00000000      0.00000000
   orign z       0.00000000      0.00000000      0.00000000
   nuclear      -0.85429079     -0.42465299     -0.00000122
   electronic    2.00054420     -0.09283158      0.00000145
   total         1.14625341     -0.51748457      0.00000023
   total Dipole moment =   3.19663432    Debye
 --------------------------------------------------- 
 starting mo_convert.x at Wed May  4 02:53:27 EDT 2022

 -------------------- mo_convert.x ------------------------
 --------------------------------------------------- 
 starting pymolcas molcas.input.molden > molcas.output.molden at Wed May  4 02:53:27 EDT 2022

Generating link ln -s ./molcas.OrdInt ORDINT 
 -------------------- molden ------------------------
 --------------------------------------------------- 
 starting mo_convert.x at Wed May  4 02:53:53 EDT 2022

 -------------------- mo_convert.x ------------------------
 --------------------------------------------------- 
 starting pymolcas molcas.input.molden > molcas.output.molden at Wed May  4 02:53:53 EDT 2022

Generating link ln -s ./molcas.OrdInt ORDINT 
 -------------------- molden ------------------------
 --------------------------------------------------- 
 starting mo_convert.x at Wed May  4 02:54:17 EDT 2022

 -------------------- mo_convert.x ------------------------
 --------------------------------------------------- 
 starting pymolcas molcas.input.molden > molcas.output.molden at Wed May  4 02:54:18 EDT 2022

Generating link ln -s ./molcas.OrdInt ORDINT 
 -------------------- molden ------------------------
 --------------------------------------------------- 
 starting mo_convert.x at Wed May  4 02:54:38 EDT 2022

 -------------------- mo_convert.x ------------------------
 --------------------------------------------------- 
 starting pymolcas molcas.input.molden > molcas.output.molden at Wed May  4 02:54:38 EDT 2022

Generating link ln -s ./molcas.OrdInt ORDINT 
 -------------------- molden ------------------------
 --------------------------------------------------- 
 starting mo_convert.x at Wed May  4 02:54:59 EDT 2022

 -------------------- mo_convert.x ------------------------
 --------------------------------------------------- 
 starting pymolcas molcas.input.molden > molcas.output.molden at Wed May  4 02:54:59 EDT 2022

Generating link ln -s ./molcas.OrdInt ORDINT 
 -------------------- molden ------------------------
 --------------------------------------------------- 
 starting mo_convert.x at Wed May  4 02:55:20 EDT 2022

 -------------------- mo_convert.x ------------------------
 --------------------------------------------------- 
 starting pymolcas molcas.input.molden > molcas.output.molden at Wed May  4 02:55:20 EDT 2022

Generating link ln -s ./molcas.OrdInt ORDINT 
 -------------------- molden ------------------------
 --------------------------------------------------- 
 starting mo_convert.x at Wed May  4 02:55:40 EDT 2022

 -------------------- mo_convert.x ------------------------
 --------------------------------------------------- 
 starting pymolcas molcas.input.molden > molcas.output.molden at Wed May  4 02:55:41 EDT 2022

Generating link ln -s ./molcas.OrdInt ORDINT 
 -------------------- molden ------------------------
 --------------------------------------------------- 
 starting mo_convert.x at Wed May  4 02:56:02 EDT 2022

 -------------------- mo_convert.x ------------------------
 --------------------------------------------------- 
 starting pymolcas molcas.input.molden > molcas.output.molden at Wed May  4 02:56:02 EDT 2022

Generating link ln -s ./molcas.OrdInt ORDINT 
 -------------------- molden ------------------------
 --------------------------------------------------- 
 starting mo_convert.x at Wed May  4 02:56:23 EDT 2022

 -------------------- mo_convert.x ------------------------
 --------------------------------------------------- 
 starting pymolcas molcas.input.molden > molcas.output.molden at Wed May  4 02:56:23 EDT 2022

Generating link ln -s ./molcas.OrdInt ORDINT 
 -------------------- molden ------------------------
 --------------------------------------------------- 
 starting mo_convert.x at Wed May  4 02:56:43 EDT 2022

 -------------------- mo_convert.x ------------------------
 --------------------------------------------------- 
 starting pymolcas molcas.input.molden > molcas.output.molden at Wed May  4 02:56:44 EDT 2022

Generating link ln -s ./molcas.OrdInt ORDINT 
 -------------------- molden ------------------------
 --------------------------------------------------- 
 starting mo_convert.x at Wed May  4 02:57:04 EDT 2022

 -------------------- mo_convert.x ------------------------
 --------------------------------------------------- 
 starting pymolcas molcas.input.molden > molcas.output.molden at Wed May  4 02:57:05 EDT 2022

Generating link ln -s ./molcas.OrdInt ORDINT 
 -------------------- molden ------------------------
 --------------------------------------------------- 
 starting mo_convert.x at Wed May  4 02:57:25 EDT 2022

 -------------------- mo_convert.x ------------------------
 --------------------------------------------------- 
 starting pymolcas molcas.input.molden > molcas.output.molden at Wed May  4 02:57:26 EDT 2022

Generating link ln -s ./molcas.OrdInt ORDINT 
 -------------------- molden ------------------------
 --------------------------------------------------- 
 starting mo_convert.x at Wed May  4 02:57:46 EDT 2022

 -------------------- mo_convert.x ------------------------
 --------------------------------------------------- 
 starting pymolcas molcas.input.molden > molcas.output.molden at Wed May  4 02:57:47 EDT 2022

Generating link ln -s ./molcas.OrdInt ORDINT 
 -------------------- molden ------------------------
 --------------------------------------------------- 
 starting mo_convert.x at Wed May  4 02:58:08 EDT 2022

 -------------------- mo_convert.x ------------------------
 --------------------------------------------------- 
 starting pymolcas molcas.input.molden > molcas.output.molden at Wed May  4 02:58:08 EDT 2022

Generating link ln -s ./molcas.OrdInt ORDINT 
 -------------------- molden ------------------------
 --------------------------------------------------- 
 

 +++++++++++ STARTING GRADIENTS AND NAD. COUPLINGS CALCULATION +++++++++++ 

 Using new transition density code ... 
INFO: this is a frozen core gradient calculation
starting cidrt.x  -m 200000 < cidrtin.cigrd > cidrtls.cigrd at Wed May  4 02:58:28 EDT 2022

 -------------------- cidrt.x ------------------------
 total number of orbitals            :   246
 number of frozen core orbitals      :    18
 number of frozen virtual orbitals   :     0
 number of internal orbitals         :    14
 number of external orbitals         :   214
 spatial symmetry:   a  
 
 total number of configurations  282461366
 number of reference configurations  1666
 --------------------------------------------------- 
 starting tran.x -m 200000  at Wed May  4 02:58:35 EDT 2022

 -------------------- tran.x ------------------------
 --------------------------------------------------- 
 ---- Computing 8 gradient(s)  ----

 --- Computing gradient for DRT:1, State; 1

starting cigrd.x -m 200000 at Wed May  4 03:06:42 EDT 2022

 -------------------- cigrd.x ------------------------
 Total energy (ciudg) :  -286.107521047453 
  Effective energy     :  -286.107521062725 
  Delta E              :     0.000000015272 
  --------------------------------------------------- 
 starting tran.x -m 200000  at Wed May  4 03:14:45 EDT 2022

 -------------------- tran.x ------------------------
 --------------------------------------------------- 
 starting pymolcas molcas.input.alaska > molcas.output.alaska  at Wed May  4 03:20:07 EDT 2022

Generating link ln -s ./molcas.OrdInt ORDINT 
 -------------------- alaska ------------------------
 --------------------------------------------------- 
 cartesian gradient by alaska (MOLCAS)

 === Gradient of DRT 1, state 1 === 
  -0.514527D-05  -0.504417D-05  -0.186594D-08
   0.896026D-05   0.642906D-05  -0.504115D-08
  -0.102399D-04  -0.205206D-05  -0.863633D-05
  -0.102560D-04  -0.205177D-05   0.863115D-05
   0.157754D-04   0.487365D-06   0.417397D-05
   0.157428D-04   0.474513D-06  -0.417615D-05
  -0.595118D-05   0.835788D-07   0.108264D-07
  -0.461398D-05   0.950126D-06  -0.254131D-05
  -0.461304D-05   0.953282D-06   0.254266D-05
   0.340124D-06   0.606936D-07   0.114336D-05
   0.339169D-06   0.603642D-07  -0.114787D-05
  -0.971527D-06  -0.302295D-06   0.156959D-05
  -0.968448D-06  -0.300691D-06  -0.156379D-05
   0.160157D-05   0.252002D-06   0.791673D-09
===================================
 --- Computing gradient for DRT:1, State; 2

starting cigrd.x -m 200000 at Wed May  4 03:21:25 EDT 2022

 -------------------- cigrd.x ------------------------
 Total energy (ciudg) :  -285.920906755809 
  Effective energy     :  -285.920906770966 
  Delta E              :     0.000000015157 
  --------------------------------------------------- 
 starting tran.x -m 200000  at Wed May  4 03:29:41 EDT 2022

 -------------------- tran.x ------------------------
 --------------------------------------------------- 
 starting pymolcas molcas.input.alaska > molcas.output.alaska  at Wed May  4 03:35:05 EDT 2022

Generating link ln -s ./molcas.OrdInt ORDINT 
 -------------------- alaska ------------------------
 --------------------------------------------------- 
 cartesian gradient by alaska (MOLCAS)

 === Gradient of DRT 1, state 2 === 
  -0.741864D-01   0.352075D-01  -0.204577D-07
   0.622762D-01  -0.138306D-01   0.357792D-08
  -0.259506D-01  -0.195373D-02   0.292489D-01
  -0.259506D-01  -0.195373D-02  -0.292489D-01
   0.206108D-01   0.934232D-03   0.141228D-01
   0.206109D-01   0.934242D-03  -0.141228D-01
  -0.243400D-02   0.731310D-04   0.533957D-08
   0.118099D-01  -0.925454D-02   0.165081D-01
   0.118099D-01  -0.925455D-02  -0.165081D-01
  -0.972257D-03  -0.450865D-03  -0.306681D-02
  -0.972255D-03  -0.450866D-03   0.306680D-02
   0.143425D-02   0.142052D-03  -0.111115D-02
   0.143426D-02   0.142052D-03   0.111115D-02
   0.479787D-03  -0.284334D-03   0.224570D-09
===================================
 --- Computing gradient for DRT:1, State; 3

starting cigrd.x -m 200000 at Wed May  4 03:36:24 EDT 2022

 -------------------- cigrd.x ------------------------
 Total energy (ciudg) :  -285.918499440803 
  Effective energy     :  -285.918499456899 
  Delta E              :     0.000000016096 
  --------------------------------------------------- 
 starting tran.x -m 200000  at Wed May  4 03:44:49 EDT 2022

 -------------------- tran.x ------------------------
 --------------------------------------------------- 
 starting pymolcas molcas.input.alaska > molcas.output.alaska  at Wed May  4 03:50:21 EDT 2022

Generating link ln -s ./molcas.OrdInt ORDINT 
 -------------------- alaska ------------------------
 --------------------------------------------------- 
 cartesian gradient by alaska (MOLCAS)

 === Gradient of DRT 1, state 3 === 
  -0.178252D-01   0.785835D-02  -0.428869D-08
   0.308971D-01  -0.550661D-03  -0.181491D-07
   0.266183D-01  -0.693753D-03   0.311504D-01
   0.266183D-01  -0.693758D-03  -0.311504D-01
  -0.246942D-01  -0.133416D-04   0.286909D-01
  -0.246943D-01  -0.133608D-04  -0.286909D-01
  -0.183451D-01   0.377065D-03  -0.277624D-07
   0.397782D-03  -0.269045D-02   0.241927D-02
   0.397783D-03  -0.269045D-02  -0.241926D-02
  -0.288546D-03  -0.348372D-03  -0.103809D-02
  -0.288547D-03  -0.348368D-03   0.103808D-02
   0.381460D-03  -0.620309D-05  -0.122256D-02
   0.381456D-03  -0.620332D-05   0.122256D-02
   0.443740D-03  -0.180497D-03  -0.195634D-08
===================================
 --- Computing gradient for DRT:1, State; 4

starting cigrd.x -m 200000 at Wed May  4 03:51:39 EDT 2022

 -------------------- cigrd.x ------------------------
 Total energy (ciudg) :  -285.869147488902 
  Effective energy     :  -285.869147501830 
  Delta E              :     0.000000012928 
  --------------------------------------------------- 
 starting tran.x -m 200000  at Wed May  4 03:59:37 EDT 2022

 -------------------- tran.x ------------------------
 --------------------------------------------------- 
 starting pymolcas molcas.input.alaska > molcas.output.alaska  at Wed May  4 04:05:01 EDT 2022

Generating link ln -s ./molcas.OrdInt ORDINT 
 -------------------- alaska ------------------------
 --------------------------------------------------- 
 cartesian gradient by alaska (MOLCAS)

 === Gradient of DRT 1, state 4 === 
  -0.373279D-01   0.982122D-02  -0.748197D-08
   0.446615D-01  -0.312188D-02   0.246641D-08
   0.388647D-01  -0.459630D-03  -0.256971D-02
   0.388648D-01  -0.459628D-03   0.256973D-02
  -0.444814D-01  -0.510482D-03  -0.112089D-01
  -0.444815D-01  -0.510466D-03   0.112089D-01
  -0.764211D-02   0.879965D-04  -0.197973D-07
   0.499234D-02  -0.247834D-02   0.487711D-02
   0.499234D-02  -0.247834D-02  -0.487711D-02
  -0.733047D-03   0.742537D-04  -0.315468D-02
  -0.733048D-03   0.742520D-04   0.315468D-02
   0.592701D-03  -0.229002D-04  -0.119938D-02
   0.592701D-03  -0.229004D-04   0.119938D-02
   0.183793D-02   0.684725D-05   0.136032D-08
===================================
 --- Computing gradient for DRT:2, State; 1

starting cigrd.x -m 200000 at Wed May  4 04:06:21 EDT 2022

 -------------------- cigrd.x ------------------------
 Total energy (ciudg) :  -285.951161696974 
  Effective energy     :  -285.951161711669 
  Delta E              :     0.000000014695 
  --------------------------------------------------- 
 starting tran.x -m 200000  at Wed May  4 04:14:24 EDT 2022

 -------------------- tran.x ------------------------
 --------------------------------------------------- 
 starting pymolcas molcas.input.alaska > molcas.output.alaska  at Wed May  4 04:19:45 EDT 2022

Generating link ln -s ./molcas.OrdInt ORDINT 
 -------------------- alaska ------------------------
 --------------------------------------------------- 
 cartesian gradient by alaska (MOLCAS)

 === Gradient of DRT 2, state 1 === 
  -0.572403D-02   0.196487D-03   0.947338D-09
   0.409935D-01   0.288071D-02  -0.194306D-07
  -0.102863D-01  -0.162237D-02   0.349769D-01
  -0.102863D-01  -0.162237D-02  -0.349769D-01
   0.987430D-02   0.253023D-03   0.373711D-01
   0.987428D-02   0.252993D-03  -0.373711D-01
  -0.370810D-01   0.581569D-04  -0.251171D-07
   0.102529D-02  -0.564015D-04   0.111000D-02
   0.102529D-02  -0.563999D-04  -0.111000D-02
  -0.887930D-03  -0.137749D-03  -0.160727D-03
  -0.887925D-03  -0.137748D-03   0.160720D-03
   0.705124D-03   0.131318D-03  -0.585644D-03
   0.705126D-03   0.131320D-03   0.585642D-03
   0.950602D-03  -0.270981D-03   0.151484D-08
===================================
 --- Computing gradient for DRT:2, State; 2

starting cigrd.x -m 200000 at Wed May  4 04:21:05 EDT 2022

 -------------------- cigrd.x ------------------------
 Total energy (ciudg) :  -285.931147990403 
  Effective energy     :  -285.931148006741 
  Delta E              :     0.000000016338 
  --------------------------------------------------- 
 starting tran.x -m 200000  at Wed May  4 04:29:06 EDT 2022

 -------------------- tran.x ------------------------
 --------------------------------------------------- 
 starting pymolcas molcas.input.alaska > molcas.output.alaska  at Wed May  4 04:34:30 EDT 2022

Generating link ln -s ./molcas.OrdInt ORDINT 
 -------------------- alaska ------------------------
 --------------------------------------------------- 
 cartesian gradient by alaska (MOLCAS)

 === Gradient of DRT 2, state 2 === 
  -0.314565D-01   0.151685D-01  -0.713295D-08
   0.329365D-01  -0.476449D-02  -0.113415D-07
   0.297814D-01   0.477750D-04   0.298531D-01
   0.297814D-01   0.477579D-04  -0.298531D-01
  -0.322655D-01   0.901238D-04   0.253730D-01
  -0.322654D-01   0.901070D-04  -0.253730D-01
   0.210691D-02   0.418691D-03   0.511560D-08
   0.336030D-03  -0.495640D-02   0.380461D-02
   0.336031D-03  -0.495640D-02  -0.380461D-02
   0.158116D-03  -0.393469D-03  -0.156493D-02
   0.158118D-03  -0.393465D-03   0.156492D-02
   0.374737D-03  -0.103390D-03  -0.164176D-02
   0.374735D-03  -0.103393D-03   0.164175D-02
  -0.356496D-03  -0.191943D-03  -0.104130D-09
===================================
 --- Computing gradient for DRT:2, State; 3

starting cigrd.x -m 200000 at Wed May  4 04:35:50 EDT 2022

 -------------------- cigrd.x ------------------------
 Total energy (ciudg) :  -285.923992033390 
  Effective energy     :  -285.923992048940 
  Delta E              :     0.000000015550 
  --------------------------------------------------- 
 starting tran.x -m 200000  at Wed May  4 04:44:24 EDT 2022

 -------------------- tran.x ------------------------
 --------------------------------------------------- 
 starting pymolcas molcas.input.alaska > molcas.output.alaska  at Wed May  4 04:49:54 EDT 2022

Generating link ln -s ./molcas.OrdInt ORDINT 
 -------------------- alaska ------------------------
 --------------------------------------------------- 
 cartesian gradient by alaska (MOLCAS)

 === Gradient of DRT 2, state 3 === 
  -0.516155D-01   0.217184D-01  -0.115964D-07
   0.449108D-01  -0.205540D-01   0.268389D-08
   0.837908D-02   0.242764D-02   0.215666D-01
   0.837910D-02   0.242762D-02  -0.215666D-01
  -0.116806D-01   0.403013D-02   0.120246D-01
  -0.116806D-01   0.403013D-02  -0.120246D-01
  -0.663570D-02  -0.371540D-02   0.756389D-09
   0.924204D-02  -0.348496D-02   0.141896D-01
   0.924205D-02  -0.348497D-02  -0.141896D-01
  -0.477593D-03  -0.126737D-02  -0.228598D-02
  -0.477592D-03  -0.126736D-02   0.228598D-02
   0.909890D-03  -0.810860D-04  -0.106731D-02
   0.909888D-03  -0.810899D-04   0.106731D-02
   0.594764D-03  -0.697602D-03   0.957329D-09
===================================
 --- Computing gradient for DRT:2, State; 4

starting cigrd.x -m 200000 at Wed May  4 04:51:15 EDT 2022

 -------------------- cigrd.x ------------------------
 Total energy (ciudg) :  -285.922228099088 
  Effective energy     :  -285.922228114283 
[...]
  -9.363303E-07   1.068108E-06   5.430836E+00
   7.698756E-01   7.866263E-02  -2.477511E+00
  -7.698756E-01  -7.866411E-02  -2.477511E+00
   1.521592E+00  -1.703430E-02   2.374614E+00
  -1.521592E+00   1.703579E-02   2.374614E+00
   3.816937E-07  -1.191286E-06  -4.635038E+00
  -2.675430E-02  -1.232017E-01  -4.567810E-02
   2.675430E-02   1.232017E-01  -4.567805E-02
   3.073581E-02   1.163380E-02   1.137783E-02
  -3.073576E-02  -1.163375E-02   1.137758E-02
   2.891790E-02   6.914504E-03  -1.401399E-02
  -2.891780E-02  -6.914604E-03  -1.401394E-02
  -6.899734E-08   3.869345E-08  -8.637408E-02
===================================

 Norm of the nonadiabatic coupling vector: 
 |h(drt2.state1,drt2.state2)|= 8.97633172442441 

 Cross-check of the non-adiabatic coupling term:
  DeltaE= -0.0200137066000252

  <L>*dE form CIGRD   :   -0.0000000000     0.0000000000     0.0014518743
  <L>*dE form NADCOUPL:    0.0003505656    -0.0188573509    -0.0000000090
 -------------------------------------------------------------------------
  Difference          :   -0.0003505656     0.0188573509     0.0014518833

 NOTE: This test is meaningless at a point of conical intersection!


 -------- NAD. COUPLING for DRT:2 STATE:1 AND DRT:2 STATE:3 --------
opening file =ciudgls.drt2.sp
opening file =ciudgls.drt2.sp
extracted: energy1= -285.9511616968   energy2=-285.9239920332   deltae=-0.0271696635999774
starting cigrd.x -m 200000 at Wed May  4 06:55:11 EDT 2022

 -------------------- cigrd.x ------------------------
 Total energy (ciudg) :    -0.000000000293 
  Effective energy     :    -0.000000005020 
  Delta E              :     0.000000004727 
  --------------------------------------------------- 
 starting tran.x -m 200000  at Wed May  4 07:02:52 EDT 2022

 -------------------- tran.x ------------------------
 --------------------------------------------------- 
  adding keyword NONUC to alaska input
starting pymolcas molcas.input.alaska > molcas.output.alaska  at Wed May  4 07:08:09 EDT 2022

Generating link ln -s ./molcas.OrdInt ORDINT 
 -------------------- alaska ------------------------
 --------------------------------------------------- 
 cartesian gradient by alaska (MOLCAS)

 Calculating the Dx(r,s) term of D[CSF] nonadiabatic coupling term.
dxcalc: INPUT LINE SEPARATOR 
 
starting tran.x -m 200000  at Wed May  4 07:09:21 EDT 2022

 -------------------- tran.x ------------------------
 --------------------------------------------------- 
 starting tdmrunfile.x > tdmrunfilels at Wed May  4 07:09:21 EDT 2022

 -------------------- tdmrunfile.x ------------------------
 --------------------------------------------------- 
 starting pymolcas molcas.input.alaska > molcas.output.alaska  at Wed May  4 07:09:21 EDT 2022

Generating link ln -s ./molcas.OrdInt ORDINT 
 -------------------- alaska ------------------------
 --------------------------------------------------- 
 
 === Non-adiabatic coupling for DRT 2 STATE 1 and DRT 2 STATE 3 === 
   4.509974E-01  -9.899475E-02   2.123224E-07
  -8.223673E-01   5.965563E-01  -7.586513E-07
   1.915824E+00  -1.381867E-01  -6.469660E-01
   1.915828E+00  -1.381864E-01   6.469660E-01
  -1.916639E+00  -1.548823E-01  -5.833594E-01
  -1.916639E+00  -1.548823E-01   5.833594E-01
   6.429355E-01   1.590466E-01  -1.662918E-07
  -1.303161E-01  -8.655920E-02  -2.251321E-01
  -1.303161E-01  -8.655920E-02   2.251321E-01
   1.933148E-02   2.528161E-02  -1.888177E-02
   1.933148E-02   2.528165E-02   1.888173E-02
  -2.099276E-02   4.450395E-03  -1.986426E-02
  -2.099273E-02   4.450357E-03   1.986437E-02
  -9.178228E-03   2.277503E-02  -2.312340E-09
===================================

 Norm of the nonadiabatic coupling vector: 
 |h(drt2.state1,drt2.state3)|= 4.25806313267414 

 Cross-check of the non-adiabatic coupling term:
  DeltaE= -0.0271696635999774

  <L>*dE form CIGRD   :   -0.0000000000     0.0000000000     0.0019709961
  <L>*dE form NADCOUPL:   -0.0000000225    -0.0000002221    -0.0030573694
 -------------------------------------------------------------------------
  Difference          :    0.0000000225     0.0000002221     0.0050283655

 NOTE: This test is meaningless at a point of conical intersection!


 -------- NAD. COUPLING for DRT:2 STATE:1 AND DRT:2 STATE:4 --------
opening file =ciudgls.drt2.sp
opening file =ciudgls.drt2.sp
extracted: energy1= -285.9511616968   energy2=-285.9222280989   deltae=-0.0289335978999929
starting cigrd.x -m 200000 at Wed May  4 07:10:29 EDT 2022

 -------------------- cigrd.x ------------------------
 Total energy (ciudg) :    -0.000000000189 
  Effective energy     :    -0.000000003010 
  Delta E              :     0.000000002821 
  --------------------------------------------------- 
 starting tran.x -m 200000  at Wed May  4 07:18:43 EDT 2022

 -------------------- tran.x ------------------------
 --------------------------------------------------- 
  adding keyword NONUC to alaska input
starting pymolcas molcas.input.alaska > molcas.output.alaska  at Wed May  4 07:23:53 EDT 2022

Generating link ln -s ./molcas.OrdInt ORDINT 
 -------------------- alaska ------------------------
 --------------------------------------------------- 
 cartesian gradient by alaska (MOLCAS)

 Calculating the Dx(r,s) term of D[CSF] nonadiabatic coupling term.
dxcalc: INPUT LINE SEPARATOR 
 
starting tran.x -m 200000  at Wed May  4 07:25:04 EDT 2022

 -------------------- tran.x ------------------------
 --------------------------------------------------- 
 starting tdmrunfile.x > tdmrunfilels at Wed May  4 07:25:04 EDT 2022

 -------------------- tdmrunfile.x ------------------------
 --------------------------------------------------- 
 starting pymolcas molcas.input.alaska > molcas.output.alaska  at Wed May  4 07:25:04 EDT 2022

Generating link ln -s ./molcas.OrdInt ORDINT 
 -------------------- alaska ------------------------
 --------------------------------------------------- 
 
 === Non-adiabatic coupling for DRT 2 STATE 1 and DRT 2 STATE 4 === 
  -1.407133E-01   2.188642E-02  -3.579509E-08
  -7.183949E-01  -5.843586E-01  -3.388512E-07
   2.131740E+00   2.013380E-01  -7.246208E-01
   2.131740E+00   2.013384E-01   7.246208E-01
  -2.168806E+00   1.072740E-01  -7.673268E-01
  -2.168806E+00   1.072740E-01   7.673268E-01
   8.612199E-01  -1.334957E-01   2.778902E-07
   4.578188E-02   8.586408E-02   1.061019E-01
   4.578188E-02   8.586408E-02  -1.061019E-01
   2.490181E-02  -2.138203E-02  -3.097980E-02
   2.490184E-02  -2.138196E-02   3.097987E-02
  -2.443368E-02  -1.151129E-02  -2.124661E-02
  -2.443368E-02  -1.151125E-02   2.124668E-02
  -1.398801E-02  -1.000628E-02  -6.949429E-09
===================================

 Norm of the nonadiabatic coupling vector: 
 |h(drt2.state1,drt2.state4)|= 4.74483291345653 

 Cross-check of the non-adiabatic coupling term:
  DeltaE= -0.0289335978999929

  <L>*dE form CIGRD   :   -0.0000000000     0.0000000000     0.0020989589
  <L>*dE form NADCOUPL:   -0.0000000136     0.0000000485     0.0026917388
 -------------------------------------------------------------------------
  Difference          :    0.0000000136    -0.0000000485    -0.0005927799

 NOTE: This test is meaningless at a point of conical intersection!


 -------- NAD. COUPLING for DRT:2 STATE:2 AND DRT:2 STATE:3 --------
opening file =ciudgls.drt2.sp
opening file =ciudgls.drt2.sp
extracted: energy1= -285.9311479902   energy2=-285.9239920332   deltae=-0.0071559569999522
starting cigrd.x -m 200000 at Wed May  4 07:26:11 EDT 2022

 -------------------- cigrd.x ------------------------
 Total energy (ciudg) :    -0.000000000870 
  Effective energy     :    -0.000000001581 
  Delta E              :     0.000000000711 
  --------------------------------------------------- 
 starting tran.x -m 200000  at Wed May  4 07:34:35 EDT 2022

 -------------------- tran.x ------------------------
 --------------------------------------------------- 
  adding keyword NONUC to alaska input
starting pymolcas molcas.input.alaska > molcas.output.alaska  at Wed May  4 07:39:50 EDT 2022

Generating link ln -s ./molcas.OrdInt ORDINT 
 -------------------- alaska ------------------------
 --------------------------------------------------- 
 cartesian gradient by alaska (MOLCAS)

 Calculating the Dx(r,s) term of D[CSF] nonadiabatic coupling term.
dxcalc: INPUT LINE SEPARATOR 
 
starting tran.x -m 200000  at Wed May  4 07:40:55 EDT 2022

 -------------------- tran.x ------------------------
 --------------------------------------------------- 
 starting tdmrunfile.x > tdmrunfilels at Wed May  4 07:40:55 EDT 2022

 -------------------- tdmrunfile.x ------------------------
 --------------------------------------------------- 
 starting pymolcas molcas.input.alaska > molcas.output.alaska  at Wed May  4 07:40:55 EDT 2022

Generating link ln -s ./molcas.OrdInt ORDINT 
 -------------------- alaska ------------------------
 --------------------------------------------------- 
 
 === Non-adiabatic coupling for DRT 2 STATE 2 and DRT 2 STATE 3 === 
  -8.756452E-07   4.214702E-07   7.065935E-01
   8.615233E-07  -9.306466E-07  -2.793518E+00
  -7.870725E-01  -7.543251E-01   7.445713E-01
   7.870739E-01   7.543265E-01   7.445727E-01
  -9.244777E-01   4.845163E-01  -3.936298E-01
   9.244763E-01  -4.845163E-01  -3.936284E-01
   4.155707E-07   3.929585E-08   1.767072E+00
   1.816245E-02  -2.026213E-01  -2.157470E-01
  -1.816273E-02   2.026213E-01  -2.157470E-01
   1.437338E-02   2.275644E-01   4.935915E-02
  -1.437352E-02  -2.275658E-01   4.935901E-02
   3.112054E-02  -6.291232E-02  -2.608370E-02
  -3.112040E-02   6.291176E-02  -2.608384E-02
  -2.864937E-07   1.745524E-07  -3.836939E-04
===================================

 Norm of the nonadiabatic coupling vector: 
 |h(drt2.state2,drt2.state3)|= 4.20665824416144 

 Cross-check of the non-adiabatic coupling term:
  DeltaE= -0.0071559569999522

  <L>*dE form CIGRD   :   -0.0000000000     0.0000000000     0.0005191217
  <L>*dE form NADCOUPL:    0.0005662710     0.0018275796     0.0000000100
 -------------------------------------------------------------------------
  Difference          :   -0.0005662710    -0.0018275796     0.0005191118

 NOTE: This test is meaningless at a point of conical intersection!


 -------- NAD. COUPLING for DRT:2 STATE:2 AND DRT:2 STATE:4 --------
opening file =ciudgls.drt2.sp
opening file =ciudgls.drt2.sp
extracted: energy1= -285.9311479902   energy2=-285.9222280989   deltae=-0.00891989129996773
starting cigrd.x -m 200000 at Wed May  4 07:42:01 EDT 2022

 -------------------- cigrd.x ------------------------
 Total energy (ciudg) :     0.000000000131 
  Effective energy     :     0.000000001157 
  Delta E              :    -0.000000001026 
  --------------------------------------------------- 
 starting tran.x -m 200000  at Wed May  4 07:50:08 EDT 2022

 -------------------- tran.x ------------------------
 --------------------------------------------------- 
  adding keyword NONUC to alaska input
starting pymolcas molcas.input.alaska > molcas.output.alaska  at Wed May  4 07:55:15 EDT 2022

Generating link ln -s ./molcas.OrdInt ORDINT 
 -------------------- alaska ------------------------
 --------------------------------------------------- 
 cartesian gradient by alaska (MOLCAS)

 Calculating the Dx(r,s) term of D[CSF] nonadiabatic coupling term.
dxcalc: INPUT LINE SEPARATOR 
 
starting tran.x -m 200000  at Wed May  4 07:56:20 EDT 2022

 -------------------- tran.x ------------------------
 --------------------------------------------------- 
 starting tdmrunfile.x > tdmrunfilels at Wed May  4 07:56:20 EDT 2022

 -------------------- tdmrunfile.x ------------------------
 --------------------------------------------------- 
 starting pymolcas molcas.input.alaska > molcas.output.alaska  at Wed May  4 07:56:21 EDT 2022

Generating link ln -s ./molcas.OrdInt ORDINT 
 -------------------- alaska ------------------------
 --------------------------------------------------- 
 
 === Non-adiabatic coupling for DRT 2 STATE 2 and DRT 2 STATE 4 === 
  -6.794493E-07   2.367447E-07  -5.620345E-02
   2.670143E-07  -3.586905E-07  -1.843534E+00
  -3.306101E-01   4.913350E-01   3.765605E-01
   3.306101E-01  -4.913361E-01   3.765605E-01
  -8.018623E-01  -3.509640E-01   9.232252E-03
   8.018623E-01   3.509651E-01   9.234124E-03
  -5.105771E-07  -1.765383E-07   9.316336E-01
   3.367715E-02   1.468082E-01   1.189907E-01
  -3.367703E-02  -1.468082E-01   1.189907E-01
   2.495285E-02  -1.546267E-01   1.737154E-02
  -2.495307E-02   1.546267E-01   1.737143E-02
   3.513165E-02   4.586369E-02  -2.837365E-02
  -3.513132E-02  -4.586358E-02  -2.837365E-02
  -1.791025E-07  -1.842008E-08  -1.836686E-02
===================================

 Norm of the nonadiabatic coupling vector: 
 |h(drt2.state2,drt2.state4)|= 2.63043957008995 

 Cross-check of the non-adiabatic coupling term:
  DeltaE= -0.00891989129996773

  <L>*dE form CIGRD   :   -0.0000000000     0.0000000000     0.0006470846
  <L>*dE form NADCOUPL:   -0.0006272170     0.0036421019    -0.0000000112
 -------------------------------------------------------------------------
  Difference          :    0.0006272170    -0.0036421019     0.0006470958

 NOTE: This test is meaningless at a point of conical intersection!


 -------- NAD. COUPLING for DRT:2 STATE:3 AND DRT:2 STATE:4 --------
opening file =ciudgls.drt2.sp
opening file =ciudgls.drt2.sp
extracted: energy1= -285.9239920332   energy2=-285.9222280989   deltae=-0.00176393430001553
starting cigrd.x -m 200000 at Wed May  4 07:57:25 EDT 2022

 -------------------- cigrd.x ------------------------
 Total energy (ciudg) :    -0.000000000798 
  Effective energy     :    -0.000000001140 
  Delta E              :     0.000000000342 
  --------------------------------------------------- 
 starting tran.x -m 200000  at Wed May  4 08:05:28 EDT 2022

 -------------------- tran.x ------------------------
 --------------------------------------------------- 
  adding keyword NONUC to alaska input
starting pymolcas molcas.input.alaska > molcas.output.alaska  at Wed May  4 08:10:50 EDT 2022

Generating link ln -s ./molcas.OrdInt ORDINT 
 -------------------- alaska ------------------------
 --------------------------------------------------- 
 cartesian gradient by alaska (MOLCAS)

 Calculating the Dx(r,s) term of D[CSF] nonadiabatic coupling term.
dxcalc: INPUT LINE SEPARATOR 
 
starting tran.x -m 200000  at Wed May  4 08:11:57 EDT 2022

 -------------------- tran.x ------------------------
 --------------------------------------------------- 
 starting tdmrunfile.x > tdmrunfilels at Wed May  4 08:11:57 EDT 2022

 -------------------- tdmrunfile.x ------------------------
 --------------------------------------------------- 
 starting pymolcas molcas.input.alaska > molcas.output.alaska  at Wed May  4 08:11:58 EDT 2022

Generating link ln -s ./molcas.OrdInt ORDINT 
 -------------------- alaska ------------------------
 --------------------------------------------------- 
 
 === Non-adiabatic coupling for DRT 2 STATE 3 and DRT 2 STATE 4 === 
  -1.822557E+01   8.893903E+00  -7.174362E-06
   1.036216E+01  -2.468876E+00   1.239256E-05
  -2.014186E+01  -9.512101E-01   4.051006E+00
  -2.014186E+01  -9.512044E-01  -4.051023E+00
   1.857209E+01  -1.936772E-01  -4.850143E-02
   1.857209E+01  -1.936710E-01   4.850585E-02
   4.396866E+00   5.267957E-01  -8.333578E-07
   3.352279E+00  -2.432427E+00   4.581071E+00
   3.352285E+00  -2.432427E+00  -4.581071E+00
  -2.776078E-01   3.748748E-02  -5.811585E-01
  -2.776061E-01   3.748709E-02   5.811641E-01
   2.931019E-01   6.074095E-02  -1.619249E-02
   2.931036E-01   6.073982E-02   1.619039E-02
  -1.243990E-01   2.520065E-02  -9.040927E-07
===================================

 Norm of the nonadiabatic coupling vector: 
 |h(drt2.state3,drt2.state4)|= 46.4500430554682 

 Cross-check of the non-adiabatic coupling term:
  DeltaE= -0.00176393430001553

  <L>*dE form CIGRD   :   -0.0000000000     0.0000000000     0.0001279628
  <L>*dE form NADCOUPL:    0.0000000476    -0.0000000530     0.0001296817
 -------------------------------------------------------------------------
  Difference          :   -0.0000000476     0.0000000530    -0.0000017189

 NOTE: This test is meaningless at a point of conical intersection!



============== timings ===================

   unik.gets.x    
   mcdrt.x        
   mcuft.x        
 * mcscf.x          walltime    0:02:58
   mcpc.x         
   mcpc.x         
   mcpc.x         
   mcpc.x         
   exptvl.x       
   exptvl.x       
   exptvl.x       
   exptvl.x       
   cidrt.x        
 * cidrt.x          walltime    0:00:06
 * tran.x           walltime    0:07:29
 * pciudg.x -m 19000   walltime   16:50:19
 * cipc.x           walltime    0:00:14
 * pciudg.x -m 19000   walltime   35:03:56
 * cipc.x           walltime    0:00:21
 * reindex.x        walltime    0:04:06
 * pciudg.x -m 19000   walltime    1:53:47
 * transci.x        walltime    0:02:12
 * transci.x        walltime    0:02:13
 * transci.x        walltime    0:02:12
 * transci.x        walltime    0:02:12
 * transci.x        walltime    0:02:12
 * transci.x        walltime    0:02:12
 * transci.x        walltime    0:04:10
 * transci.x        walltime    0:04:06
 * transci.x        walltime    0:04:07
 * transci.x        walltime    0:04:04
 * transci.x        walltime    0:03:57
 * transci.x        walltime    0:03:56
   exptvl.x       
   exptvl.x       
   exptvl.x       
   exptvl.x       
   exptvl.x       
   exptvl.x       
   exptvl.x       
   exptvl.x       
   mo_convert.x   
   mo_convert.x   
   mo_convert.x   
   mo_convert.x   
   mo_convert.x   
   mo_convert.x   
   mo_convert.x   
   mo_convert.x   
   mo_convert.x   
   mo_convert.x   
   mo_convert.x   
   mo_convert.x   
   mo_convert.x   
   mo_convert.x   
 * cidrt.x          walltime    0:00:07
 * tran.x           walltime    0:08:07
 * cigrd.x          walltime    0:08:03
 * tran.x           walltime    0:05:21
 * cigrd.x          walltime    0:08:14
 * tran.x           walltime    0:05:24
 * cigrd.x          walltime    0:08:23
 * tran.x           walltime    0:05:31
 * cigrd.x          walltime    0:07:57
 * tran.x           walltime    0:05:24
 * cigrd.x          walltime    0:08:02
 * tran.x           walltime    0:05:20
 * cigrd.x          walltime    0:08:00
 * tran.x           walltime    0:05:23
 * cigrd.x          walltime    0:08:33
 * tran.x           walltime    0:05:29
 * cigrd.x          walltime    0:08:23
 * tran.x           walltime    0:05:21
 * cigrd.x          walltime    0:08:09
 * tran.x           walltime    0:05:07
   tran.x         
   tdmrunfile.x   
 * cigrd.x          walltime    0:08:02
 * tran.x           walltime    0:05:11
   tran.x         
   tdmrunfile.x   
 * cigrd.x          walltime    0:08:34
 * tran.x           walltime    0:05:09
   tran.x         
   tdmrunfile.x   
 * cigrd.x          walltime    0:08:17
 * tran.x           walltime    0:05:06
   tran.x         
   tdmrunfile.x   
 * cigrd.x          walltime    0:07:56
 * tran.x           walltime    0:05:18
   tran.x         
   tdmrunfile.x   
 * cigrd.x          walltime    0:07:55
 * tran.x           walltime    0:05:08
   tran.x         
   tdmrunfile.x   
 * cigrd.x          walltime    0:07:55
 * tran.x           walltime    0:05:19
   tran.x         
   tdmrunfile.x   
 * cigrd.x          walltime    0:07:39
 * tran.x           walltime    0:05:16
   tran.x         
   tdmrunfile.x   
 * cigrd.x          walltime    0:08:13
 * tran.x           walltime    0:05:09
   tran.x         
   tdmrunfile.x   
 * cigrd.x          walltime    0:08:22
 * tran.x           walltime    0:05:14
   tran.x         
   tdmrunfile.x   
 * cigrd.x          walltime    0:08:06
 * tran.x           walltime    0:05:07
   tran.x         
   tdmrunfile.x   
 * cigrd.x          walltime    0:08:02
 * tran.x           walltime    0:05:21
   tran.x         
   tdmrunfile.x   

==========================================

