[Molden Format]
[Atoms] AU
  N     1    7    -0.0009555500    0.0029204500   -4.3902467400        
  C     2    6    -0.0031462600   -0.0004528800   -1.7482478400        
  C     3    6     0.1659433500   -2.3185746200   -0.4079818500        
  C     4    6    -0.1744632000    2.3142391500   -0.4023488900        
  C     5    6     0.2094924900   -2.2995183900    2.1793864200        
  C     6    6    -0.2223030400    2.2885759400    2.1848865000        
  C     7    6    -0.0074791700   -0.0071248600    3.4772608500        
  H     8    1    -1.6269727800   -0.3530100800   -5.3974815700        
  H     9    1     1.6267290400    0.3614184700   -5.3938714500        
  H    10    1     0.2998188500   -4.0344301200   -1.4651138300        
  H    11    1    -0.3065890400    4.0327888400   -1.4553163600        
  H    12    1     0.3893775900   -4.0282627300    3.2176983100        
  H    13    1    -0.4039134400    4.0146635800    3.2273098000        
  H    14    1    -0.0091614700   -0.0097153300    5.5061241000        
[5D]
[7F]
[GTO]
  1  0
   s    12 1.00
  0.114200D+05  0.172695D-04
  0.171200D+04  0.134411D-03
  0.389300D+03  0.694561D-03
  0.110000D+03  0.278531D-02
  0.355700D+02  0.863457D-02
  0.125400D+02  0.199805D-01
  0.464400D+01  0.262908D-01
  0.129300D+01 -0.243845D-01
  0.511800D+00 -0.924934D-01
  0.178700D+00 -0.339683D+00
  0.246240D-01  0.345111D+00
  0.112530D-01  0.752750D+00
   s    10 1.00
  0.114200D+05  0.523000D-03
  0.171200D+04  0.404500D-02
  0.389300D+03  0.207750D-01
  0.110000D+03  0.807269D-01
  0.355700D+02  0.233074D+00
  0.125400D+02  0.433501D+00
  0.464400D+01  0.347472D+00
  0.129300D+01  0.412620D-01
  0.511800D+00 -0.850799D-02
  0.178700D+00  0.238400D-02
   s    10 1.00
  0.114200D+05 -0.115000D-03
  0.171200D+04 -0.895000D-03
  0.389300D+03 -0.462400D-02
  0.110000D+03 -0.185280D-01
  0.355700D+02 -0.573390D-01
  0.125400D+02 -0.132076D+00
  0.464400D+01 -0.172510D+00
  0.129300D+01  0.151814D+00
  0.511800D+00  0.599944D+00
  0.178700D+00  0.387462D+00
   s     1 1.00
  0.129300D+01  0.100000D+01
   s     1 1.00
  0.178700D+00  0.100000D+01
   p     5 1.00
  0.266300D+02  0.146700D-01
  0.594800D+01  0.917640D-01
  0.174200D+01  0.298683D+00
  0.555000D+00  0.498487D+00
  0.172500D+00  0.337023D+00
   p     1 1.00
  0.174200D+01  0.100000D+01
   p     1 1.00
  0.555000D+00  0.100000D+01
   d     1 1.00
  0.165400D+01  0.100000D+01
   d     1 1.00
  0.469000D+00  0.100000D+01
   f     1 1.00
  0.109300D+01  0.100000D+01
  
  2  0
   s    10 1.00
  0.823600D+04  0.531000D-03
  0.123500D+04  0.410800D-02
  0.280800D+03  0.210870D-01
  0.792700D+02  0.818530D-01
  0.255900D+02  0.234817D+00
  0.899700D+01  0.434401D+00
  0.331900D+01  0.346129D+00
  0.905900D+00  0.393780D-01
  0.364300D+00 -0.898300D-02
  0.128500D+00  0.238500D-02
   s    10 1.00
  0.823600D+04 -0.113000D-03
  0.123500D+04 -0.878000D-03
  0.280800D+03 -0.454000D-02
  0.792700D+02 -0.181330D-01
  0.255900D+02 -0.557600D-01
  0.899700D+01 -0.126895D+00
  0.331900D+01 -0.170352D+00
  0.905900D+00  0.140382D+00
  0.364300D+00  0.598684D+00
  0.128500D+00  0.395389D+00
   s     1 1.00
  0.905900D+00  0.100000D+01
   s     1 1.00
  0.364300D+00  0.100000D+01
   p     5 1.00
  0.187100D+02  0.140310D-01
  0.413300D+01  0.868660D-01
  0.120000D+01  0.290216D+00
  0.382700D+00  0.501008D+00
  0.120900D+00  0.343406D+00
   p     1 1.00
  0.382700D+00  0.100000D+01
   p     1 1.00
  0.120900D+00  0.100000D+01
   d     1 1.00
  0.109700D+01  0.100000D+01
   d     1 1.00
  0.318000D+00  0.100000D+01
   f     1 1.00
  0.761000D+00  0.100000D+01
  
  3  0
   s    10 1.00
  0.823600D+04  0.531000D-03
  0.123500D+04  0.410800D-02
  0.280800D+03  0.210870D-01
  0.792700D+02  0.818530D-01
  0.255900D+02  0.234817D+00
  0.899700D+01  0.434401D+00
  0.331900D+01  0.346129D+00
  0.905900D+00  0.393780D-01
  0.364300D+00 -0.898300D-02
  0.128500D+00  0.238500D-02
   s    10 1.00
  0.823600D+04 -0.113000D-03
  0.123500D+04 -0.878000D-03
  0.280800D+03 -0.454000D-02
  0.792700D+02 -0.181330D-01
  0.255900D+02 -0.557600D-01
  0.899700D+01 -0.126895D+00
  0.331900D+01 -0.170352D+00
  0.905900D+00  0.140382D+00
  0.364300D+00  0.598684D+00
  0.128500D+00  0.395389D+00
   s     1 1.00
  0.905900D+00  0.100000D+01
   s     1 1.00
  0.364300D+00  0.100000D+01
   p     5 1.00
  0.187100D+02  0.140310D-01
  0.413300D+01  0.868660D-01
  0.120000D+01  0.290216D+00
  0.382700D+00  0.501008D+00
  0.120900D+00  0.343406D+00
   p     1 1.00
  0.382700D+00  0.100000D+01
   p     1 1.00
  0.120900D+00  0.100000D+01
   d     1 1.00
  0.109700D+01  0.100000D+01
   d     1 1.00
  0.318000D+00  0.100000D+01
   f     1 1.00
  0.761000D+00  0.100000D+01
  
  4  0
   s    10 1.00
  0.823600D+04  0.531000D-03
  0.123500D+04  0.410800D-02
  0.280800D+03  0.210870D-01
  0.792700D+02  0.818530D-01
  0.255900D+02  0.234817D+00
  0.899700D+01  0.434401D+00
  0.331900D+01  0.346129D+00
  0.905900D+00  0.393780D-01
  0.364300D+00 -0.898300D-02
  0.128500D+00  0.238500D-02
   s    10 1.00
  0.823600D+04 -0.113000D-03
  0.123500D+04 -0.878000D-03
  0.280800D+03 -0.454000D-02
  0.792700D+02 -0.181330D-01
  0.255900D+02 -0.557600D-01
  0.899700D+01 -0.126895D+00
  0.331900D+01 -0.170352D+00
  0.905900D+00  0.140382D+00
  0.364300D+00  0.598684D+00
  0.128500D+00  0.395389D+00
   s     1 1.00
  0.905900D+00  0.100000D+01
   s     1 1.00
  0.364300D+00  0.100000D+01
   p     5 1.00
  0.187100D+02  0.140310D-01
  0.413300D+01  0.868660D-01
  0.120000D+01  0.290216D+00
  0.382700D+00  0.501008D+00
  0.120900D+00  0.343406D+00
   p     1 1.00
  0.382700D+00  0.100000D+01
   p     1 1.00
  0.120900D+00  0.100000D+01
   d     1 1.00
  0.109700D+01  0.100000D+01
   d     1 1.00
  0.318000D+00  0.100000D+01
   f     1 1.00
  0.761000D+00  0.100000D+01
  
  5  0
   s    10 1.00
  0.823600D+04  0.531000D-03
  0.123500D+04  0.410800D-02
  0.280800D+03  0.210870D-01
  0.792700D+02  0.818530D-01
  0.255900D+02  0.234817D+00
  0.899700D+01  0.434401D+00
  0.331900D+01  0.346129D+00
  0.905900D+00  0.393780D-01
  0.364300D+00 -0.898300D-02
  0.128500D+00  0.238500D-02
   s    10 1.00
  0.823600D+04 -0.113000D-03
  0.123500D+04 -0.878000D-03
  0.280800D+03 -0.454000D-02
  0.792700D+02 -0.181330D-01
  0.255900D+02 -0.557600D-01
  0.899700D+01 -0.126895D+00
  0.331900D+01 -0.170352D+00
  0.905900D+00  0.140382D+00
  0.364300D+00  0.598684D+00
  0.128500D+00  0.395389D+00
   s     1 1.00
  0.905900D+00  0.100000D+01
   s     1 1.00
  0.364300D+00  0.100000D+01
   p     5 1.00
  0.187100D+02  0.140310D-01
  0.413300D+01  0.868660D-01
  0.120000D+01  0.290216D+00
  0.382700D+00  0.501008D+00
  0.120900D+00  0.343406D+00
   p     1 1.00
  0.382700D+00  0.100000D+01
   p     1 1.00
  0.120900D+00  0.100000D+01
   d     1 1.00
  0.109700D+01  0.100000D+01
   d     1 1.00
  0.318000D+00  0.100000D+01
   f     1 1.00
  0.761000D+00  0.100000D+01
  
  6  0
   s    10 1.00
  0.823600D+04  0.531000D-03
  0.123500D+04  0.410800D-02
  0.280800D+03  0.210870D-01
  0.792700D+02  0.818530D-01
  0.255900D+02  0.234817D+00
  0.899700D+01  0.434401D+00
  0.331900D+01  0.346129D+00
  0.905900D+00  0.393780D-01
  0.364300D+00 -0.898300D-02
  0.128500D+00  0.238500D-02
   s    10 1.00
  0.823600D+04 -0.113000D-03
  0.123500D+04 -0.878000D-03
  0.280800D+03 -0.454000D-02
  0.792700D+02 -0.181330D-01
  0.255900D+02 -0.557600D-01
  0.899700D+01 -0.126895D+00
  0.331900D+01 -0.170352D+00
  0.905900D+00  0.140382D+00
  0.364300D+00  0.598684D+00
  0.128500D+00  0.395389D+00
   s     1 1.00
  0.905900D+00  0.100000D+01
   s     1 1.00
  0.364300D+00  0.100000D+01
   p     5 1.00
  0.187100D+02  0.140310D-01
  0.413300D+01  0.868660D-01
  0.120000D+01  0.290216D+00
  0.382700D+00  0.501008D+00
  0.120900D+00  0.343406D+00
   p     1 1.00
  0.382700D+00  0.100000D+01
   p     1 1.00
  0.120900D+00  0.100000D+01
   d     1 1.00
  0.109700D+01  0.100000D+01
   d     1 1.00
  0.318000D+00  0.100000D+01
   f     1 1.00
  0.761000D+00  0.100000D+01
  
  7  0
   s    10 1.00
  0.823600D+04  0.531000D-03
  0.123500D+04  0.410800D-02
  0.280800D+03  0.210870D-01
  0.792700D+02  0.818530D-01
  0.255900D+02  0.234817D+00
  0.899700D+01  0.434401D+00
  0.331900D+01  0.346129D+00
  0.905900D+00  0.393780D-01
  0.364300D+00 -0.898300D-02
  0.128500D+00  0.238500D-02
   s    10 1.00
  0.823600D+04 -0.113000D-03
  0.123500D+04 -0.878000D-03
  0.280800D+03 -0.454000D-02
  0.792700D+02 -0.181330D-01
  0.255900D+02 -0.557600D-01
  0.899700D+01 -0.126895D+00
  0.331900D+01 -0.170352D+00
  0.905900D+00  0.140382D+00
  0.364300D+00  0.598684D+00
  0.128500D+00  0.395389D+00
   s     1 1.00
  0.905900D+00  0.100000D+01
   s     1 1.00
  0.364300D+00  0.100000D+01
   p     5 1.00
  0.187100D+02  0.140310D-01
  0.413300D+01  0.868660D-01
  0.120000D+01  0.290216D+00
  0.382700D+00  0.501008D+00
  0.120900D+00  0.343406D+00
   p     1 1.00
  0.382700D+00  0.100000D+01
   p     1 1.00
  0.120900D+00  0.100000D+01
   d     1 1.00
  0.109700D+01  0.100000D+01
   d     1 1.00
  0.318000D+00  0.100000D+01
   f     1 1.00
  0.761000D+00  0.100000D+01
  
  8  0
   s     4 1.00
  0.130100D+02  0.196850D-01
  0.196200D+01  0.137977D+00
  0.444600D+00  0.478148D+00
  0.122000D+00  0.501240D+00
   s     1 1.00
  0.122000D+00  0.100000D+01
   p     1 1.00
  0.727000D+00  0.100000D+01
  
  9  0
   s     4 1.00
  0.130100D+02  0.196850D-01
  0.196200D+01  0.137977D+00
  0.444600D+00  0.478148D+00
  0.122000D+00  0.501240D+00
   s     1 1.00
  0.122000D+00  0.100000D+01
   p     1 1.00
  0.727000D+00  0.100000D+01
  
 10  0
   s     4 1.00
  0.130100D+02  0.196850D-01
  0.196200D+01  0.137977D+00
  0.444600D+00  0.478148D+00
  0.122000D+00  0.501240D+00
   s     1 1.00
  0.122000D+00  0.100000D+01
   p     1 1.00
  0.727000D+00  0.100000D+01
  
 11  0
   s     4 1.00
  0.130100D+02  0.196850D-01
  0.196200D+01  0.137977D+00
  0.444600D+00  0.478148D+00
  0.122000D+00  0.501240D+00
   s     1 1.00
  0.122000D+00  0.100000D+01
   p     1 1.00
  0.727000D+00  0.100000D+01
  
 12  0
   s     4 1.00
  0.130100D+02  0.196850D-01
  0.196200D+01  0.137977D+00
  0.444600D+00  0.478148D+00
  0.122000D+00  0.501240D+00
   s     1 1.00
  0.122000D+00  0.100000D+01
   p     1 1.00
  0.727000D+00  0.100000D+01
  
 13  0
   s     4 1.00
  0.130100D+02  0.196850D-01
  0.196200D+01  0.137977D+00
  0.444600D+00  0.478148D+00
  0.122000D+00  0.501240D+00
   s     1 1.00
  0.122000D+00  0.100000D+01
   p     1 1.00
  0.727000D+00  0.100000D+01
  
 14  0
   s     4 1.00
  0.130100D+02  0.196850D-01
  0.196200D+01  0.137977D+00
  0.444600D+00  0.478148D+00
  0.122000D+00  0.501240D+00
   s     1 1.00
  0.122000D+00  0.100000D+01
   p     1 1.00
  0.727000D+00  0.100000D+01
  
[MO]
 Sym= __1_A__
 Ene=  0.000000000000000E+000
 Spin= Alpha
 Occup=    2.00000000000000     
                     1  1.003691143508885E-004
                     2  0.997542639048054     
                     3  1.511000232336318E-002
                     4  2.220853997991431E-003
                     5  5.703140014652108E-004
                     6 -2.550896715345665E-006
                     7 -3.958500005825118E-006
                     8  3.085283787786144E-003
                     9  3.101508371480311E-007
                    10  4.968701348510183E-007
                    11 -3.784610023249542E-004
                    12  5.237016028073238E-007
                    13  7.765302801488717E-007
                    14 -6.329991535977622E-004
                    15  1.375183297104322E-004
                    16 -4.071433938683608E-008
                    17 -3.860058110507082E-007
                    18  1.011844230160010E-004
                    19  5.666282445484318E-005
                    20  7.837806411704423E-005
                    21 -8.532642602952283E-007
                    22  2.741660435774762E-007
                    23 -5.238411446388894E-004
                    24 -2.382163062018954E-004
                    25 -1.944685026688588E-004
                    26 -5.596873893253269E-007
                    27 -5.355352783476330E-007
                    28 -6.312364878781993E-005
                    29 -4.030642273270663E-005
                    30 -1.163803306182355E-009
                    31  1.392414135215431E-007
                    32 -2.098603980770767E-004
                    33  3.088687454817433E-003
                    34  1.168017271826435E-004
                    35 -6.792564725855709E-004
                    36  5.928629107307569E-006
                    37  9.157958630480114E-006
                    38 -7.155976635927533E-003
                    39  1.259523211408030E-007
                    40  1.091492443273078E-007
                    41 -1.368127915390267E-004
                    42 -3.113961714445937E-006
                    43 -4.754232549201375E-006
                    44  3.750301496795433E-003
                    45  4.011374277079825E-004
                    46 -4.890957871506564E-007
                    47 -9.944795819465908E-007
                    48  9.631477925728640E-005
                    49  5.820874996523253E-006
                    50  7.739469805099144E-004
                    51 -9.225305243827108E-007
                    52 -2.018109037168731E-006
                    53  1.460671451082235E-004
                    54  4.663007164266357E-005
                    55 -4.817685615626185E-005
                    56 -6.829879340454673E-008
                    57 -2.126108012775121E-007
                    58  2.680651322409660E-005
                    59 -3.210471335898407E-006
                    60  3.199063643844685E-008
                    61 -4.232181844620691E-008
                    62 -2.008234955140617E-004
                    63 -1.833167428399913E-003
                    64  1.715567748963825E-006
                    65  8.637513390812658E-004
                    66  7.008639195185189E-005
                    67 -9.434623919014919E-004
                    68  1.333457577721653E-003
                    69  7.318797462436617E-006
                    70  1.140051292650882E-004
                    71  6.443537773765251E-005
                    72  5.487921656329337E-005
                    73 -6.319603727369552E-004
                    74 -3.518325100655467E-004
                    75  9.876822217239418E-005
                    76  1.845550857180875E-006
                    77 -1.119715418301610E-005
                    78  3.658659928612398E-005
                    79  4.859059139659750E-006
                    80  4.547420877471456E-005
                    81 -1.699919872933542E-006
                    82 -4.371142518178874E-005
                    83  3.144299598852866E-005
                    84  1.351050964604215E-005
                    85 -6.817121156077469E-005
                    86  2.707029839598970E-006
                    87  2.593811389176633E-006
                    88  1.970964229911839E-005
                    89  9.584757962813298E-007
                    90  5.879693806143301E-006
                    91  2.750757777633469E-005
                    92 -2.007827300557454E-004
                    93 -1.833005192440550E-003
                    94  1.899687480591762E-006
                    95  8.631603243822259E-004
                    96 -7.230158289189306E-005
                    97  9.400776424210218E-004
                    98  1.335868888707512E-003
                    99 -7.400436043875619E-006
                   100 -1.143323167377768E-004
                   101  6.342829522867689E-005
                   102 -5.424416645965286E-005
                   103  6.322068768446256E-004
                   104 -3.501434528892473E-004
                   105  9.877476758738458E-005
                   106 -2.056347559824616E-006
                   107  1.069320100770664E-005
                   108  3.661948346900292E-005
                   109  4.845347511417076E-006
                   110  4.517488848807868E-005
                   111  1.676794289115391E-006
                   112  4.333561536820087E-005
                   113  3.145149146408336E-005
                   114  1.342430642531774E-005
                   115 -6.806553688260789E-005
                   116 -2.925897419705585E-006
                   117 -3.095094295734877E-006
                   118  1.962688989746813E-005
                   119  9.016281426183251E-007
                   120 -5.843017206619110E-006
                   121 -2.756950010168289E-005
                   122 -1.649406442546072E-004
                   123  2.862597895269817E-005
                   124  7.099208197399011E-005
                   125  3.104688776087208E-004
                   126 -4.343467566171143E-005
                   127  6.569869271164695E-005
                   128 -9.071398138418094E-004
                   129 -2.569164332967027E-006
                   130  1.750488245996570E-005
                   131  1.687323859362271E-004
                   132  3.462485482039738E-006
                   133  1.398477032777819E-005
                   134  5.470585792411194E-004
                   135  4.796027249214898E-006
                   136  1.305646461579200E-007
                   137  8.700383241807013E-006
                   138 -1.967955659505292E-006
                   139  5.122334006776974E-007
                   140 -1.195066855281082E-004
                   141 -8.525522929950292E-006
                   142  7.547962444429678E-005
                   143  3.802247969036984E-005
                   144  1.945946513179897E-006
                   145 -2.133691453476682E-005
                   146  5.161838568506338E-007
                   147 -8.307056901551632E-006
                   148 -7.886796291703035E-006
                   149 -1.429603175516566E-006
                   150 -1.028583231141381E-006
                   151 -2.486830557953234E-006
                   152 -1.654765888982524E-004
                   153  2.672489011933638E-005
                   154  7.044043218369386E-005
                   155  3.139016893723162E-004
                   156  4.492869035895440E-005
                   157 -6.331405993638480E-005
                   158 -9.071964948538675E-004
                   159  2.349758090969103E-006
                   160 -1.836182534248601E-005
                   161  1.683018241267065E-004
                   162 -4.430243790599045E-006
                   163 -1.477737763270364E-005
                   164  5.471788688225618E-004
                   165  4.817559002861166E-006
                   166 -1.479676055547046E-007
                   167 -8.725266707210764E-006
                   168 -2.048164907212260E-006
                   169  5.151586168847092E-007
                   170 -1.196709293709840E-004
                   171  8.954199839646097E-006
                   172 -7.532672422911519E-005
                   173  3.775808522856106E-005
                   174  2.041045415796431E-006
                   175 -2.128656230801187E-005
                   176 -6.262836101015347E-007
                   177  8.208721808424236E-006
                   178 -7.904766982828751E-006
                   179 -1.451984313143607E-006
                   180  1.019683657907893E-006
                   181  2.525728880784899E-006
                   182 -1.388572300129753E-004
                   183 -3.755403860673238E-004
                   184  2.062340547637951E-005
                   185  2.879871189228809E-004
                   186  3.202952163409522E-008
                   187  1.673477929830743E-007
                   188 -5.241452933518228E-005
                   189  3.737494684930585E-008
                   190 -5.264854777149341E-007
                   191  1.719236349545855E-005
                   192  8.832399334076628E-008
                   193  9.751494178495804E-008
                   194 -1.017778987815970E-004
                   195  2.112163252576839E-005
                   196 -2.482913863428358E-008
                   197 -2.658206238145559E-008
                   198  7.111178771580782E-006
                   199  1.996961285221888E-006
                   200  2.408494619735150E-005
                   201 -4.898184552380234E-008
                   202  1.815040402581475E-007
                   203  8.245243124594131E-006
                   204  4.283074190015341E-007
                   205 -1.188782686452935E-005
                   206 -1.692731335383920E-008
                   207 -4.982106488687282E-008
                   208  3.055457448885690E-006
                   209  1.139527819772182E-006
                   210  1.018032194095046E-008
                   211  2.525248527127170E-008
                   212  7.218125751150767E-003
                   213 -3.829114770106232E-003
                   214  7.081682938034773E-004
                   215  1.498042402354729E-004
                   216  4.753265530319020E-004
                   217  7.218112823339016E-003
                   218 -3.829111555167789E-003
                   219 -7.089537136358542E-004
                   220 -1.510199054641810E-004
                   221  4.737668806978696E-004
                   222 -7.106127801447968E-004
                   223 -2.023259198214669E-004
                   224  3.984325469132504E-006
                   225 -4.146338478912047E-005
                   226 -5.098973604519607E-005
                   227 -7.106849363691535E-004
                   228 -2.019104219127410E-004
                   229 -3.898791648592589E-006
                   230  4.157258204347955E-005
                   231 -5.092092536613225E-005
                   232 -2.995584803671847E-004
                   233 -1.922201035825051E-004
                   234 -7.918240872294946E-008
                   235 -1.756323842894907E-005
                   236 -3.960334252593248E-006
                   237 -2.996086090887639E-004
                   238 -1.923854196042303E-004
                   239  7.993116394506821E-008
                   240  1.762517427633177E-005
                   241 -3.861118989604513E-006
                   242  1.128704006095427E-004
                   243  1.693556063175706E-005
                   244 -1.252631710352876E-008
                   245 -4.689821720241401E-008
                   246  1.714966807587604E-005
 Sym= __2_A__
 Ene=  0.000000000000000E+000
 Spin= Alpha
 Occup=    2.00000000000000     
                     1 -2.078279936969376E-006
                     2 -5.849253703017470E-005
                     3  1.693245122891717E-003
                     4  2.993849327477149E-005
                     5  1.086231375983588E-003
                     6 -1.403739280841133E-006
                     7 -2.149784345868210E-006
                     8  1.688246656771604E-003
                     9  9.321568286331691E-008
                    10  1.374200461698398E-007
                    11 -1.105337135134262E-004
                    12 -3.440280785989514E-008
                    13 -5.128571103367027E-008
                    14  4.306824611899770E-005
                    15  5.380682898088480E-005
                    16 -8.311883798856308E-008
                    17 -1.309722488484241E-007
                    18  4.832308294038284E-006
                    19 -7.537046913576260E-006
                    20 -7.488598797764526E-005
                    21  1.439966498626448E-007
                    22  1.951760715113691E-007
                    23 -2.747011646227608E-006
                    24  2.941953206722023E-005
                    25  1.898425685413773E-004
                    26  2.840072878651751E-007
                    27  6.811847271118807E-007
                    28 -5.413508186596658E-005
                    29 -1.568809796426985E-005
                    30 -3.020181929506600E-008
                    31  1.009913126331160E-007
                    32   1.00104598089640     
                    33  8.721614445982791E-003
                    34  2.555842471293023E-003
                    35 -7.975109974184795E-003
                    36  2.136444617143015E-006
                    37  3.287458505198356E-006
                    38 -2.578342368176338E-003
                    39 -9.191216348774032E-007
                    40 -1.409179386831933E-006
                    41  1.108011184387639E-003
                    42 -2.713568895374004E-006
                    43 -4.255292583677805E-006
                    44  3.281120568826859E-003
                    45  2.464506412426814E-004
                    46 -7.119271611358949E-007
                    47 -1.101057140988875E-007
                    48 -3.693715250467906E-004
                    49 -4.057238024447689E-005
                    50  3.012910659472867E-004
                    51  3.390678868500408E-007
                    52 -1.547872256339036E-006
                    53  7.720045603550161E-004
                    54  1.030511493116356E-004
                    55  2.724801847173830E-004
                    56  3.189549224850809E-007
                    57  1.154751571786301E-006
                    58 -1.581223002197269E-004
                    59 -1.321411618331118E-005
                    60 -1.395620585986925E-007
                    61  2.623446526037064E-007
                    62  1.276810324139324E-002
                    63 -1.688880468519475E-003
                    64 -2.870393818279420E-004
                    65  2.878188821887186E-003
                    66 -1.833326910330617E-005
                    67  2.850113992128957E-004
                    68 -1.767057364943828E-004
                    69 -3.574985564266815E-005
                    70  5.085463836984938E-004
                    71  1.026295821371435E-004
                    72  1.411315979578280E-004
                    73 -1.737049741550575E-003
                    74  1.857832293741603E-004
                    75 -2.874288622777007E-005
                    76  8.063585238574291E-007
                    77  1.422780541424747E-005
                    78  1.719437164574046E-005
                    79  1.791064500760846E-006
                    80  7.584646179180501E-004
                    81  3.935229729554394E-005
                    82 -4.127646059372686E-004
                    83 -4.201678013003512E-005
                    84 -1.109855661408265E-005
                    85  4.623363653637166E-005
                    86 -7.722511000827798E-008
                    87  1.962575038381404E-005
                    88 -1.053401873477356E-004
                    89 -1.260626818233789E-005
                    90  1.001823809082274E-005
                    91  4.722085170947587E-005
                    92  1.276809120067816E-002
                    93 -1.688957315124800E-003
                    94 -2.870878132797210E-004
                    95  2.878390699177219E-003
                    96  1.862655808836017E-005
                    97 -2.845616695859165E-004
                    98 -1.774306585932625E-004
                    99  3.557641310457200E-005
                   100 -5.087942827723215E-004
                   101  1.015471094993553E-004
                   102 -1.414558778172553E-004
                   103  1.736719205364673E-003
                   104  1.898343469254926E-004
                   105 -2.879381930708866E-005
                   106 -6.906338241249805E-007
                   107 -1.414742465455069E-005
                   108  1.715805324502513E-005
                   109  1.816589633641822E-006
                   110  7.602553997710847E-004
                   111 -4.163699623929318E-005
                   112  4.095406634013061E-004
                   113 -4.087677110678228E-005
                   114 -1.167408081119106E-005
                   115  4.633744433653253E-005
                   116 -6.304292418305878E-008
                   117 -1.894214350452915E-005
                   118 -1.055426115575899E-004
                   119 -1.268253999544764E-005
                   120 -1.019261394237140E-005
                   121 -4.686474507337092E-005
                   122 -1.216957947249924E-004
                   123 -7.585811499527555E-004
                   124  2.296453491325615E-004
                   125 -2.044424987360562E-004
                   126 -2.090315611079855E-006
                   127 -3.622189483223356E-005
                   128 -1.627900433623860E-004
                   129  1.515632399377534E-005
                   130  2.102529850614667E-005
                   131  5.831612298666844E-004
                   132 -2.211541788856828E-005
                   133  2.925567360419824E-004
                   134  6.085798713989660E-004
                   135 -2.611175675374965E-005
                   136 -4.416877905763676E-006
                   137  4.278684369494857E-005
                   138  1.539283098893722E-005
                   139  4.555823050572785E-006
                   140 -2.936628551209787E-004
                   141  4.603064323857170E-006
                   142 -2.286087113847173E-004
                   143 -2.495626982780730E-005
                   144 -1.863710404997778E-005
                   145 -7.923440449025686E-006
                   146  4.664376494206259E-006
                   147 -2.261925158482283E-005
                   148 -3.104726045787684E-005
                   149 -6.126218949222017E-006
                   150 -4.904467813612547E-007
                   151 -5.879676701447674E-006
                   152 -1.214178471921418E-004
                   153 -7.576610481737608E-004
                   154  2.297414014067451E-004
                   155 -2.055337887299411E-004
                   156  2.361304993467272E-006
                   157  3.662344374617182E-005
                   158 -1.626987848327718E-004
                   159 -1.613430745755144E-005
                   160 -2.243884371659066E-005