[Molden Format]
[Atoms] AU
  N     1    7    -0.0009555500    0.0029204500   -4.3902467400        
  C     2    6    -0.0031462600   -0.0004528800   -1.7482478400        
  C     3    6     0.1659433500   -2.3185746200   -0.4079818500        
  C     4    6    -0.1744632000    2.3142391500   -0.4023488900        
  C     5    6     0.2094924900   -2.2995183900    2.1793864200        
  C     6    6    -0.2223030400    2.2885759400    2.1848865000        
  C     7    6    -0.0074791700   -0.0071248600    3.4772608500        
  H     8    1    -1.6269727800   -0.3530100800   -5.3974815700        
  H     9    1     1.6267290400    0.3614184700   -5.3938714500        
  H    10    1     0.2998188500   -4.0344301200   -1.4651138300        
  H    11    1    -0.3065890400    4.0327888400   -1.4553163600        
  H    12    1     0.3893775900   -4.0282627300    3.2176983100        
  H    13    1    -0.4039134400    4.0146635800    3.2273098000        
  H    14    1    -0.0091614700   -0.0097153300    5.5061241000        
[5D]
[7F]
[GTO]
  1  0
   s    12 1.00
  0.114200D+05  0.172695D-04
  0.171200D+04  0.134411D-03
  0.389300D+03  0.694561D-03
  0.110000D+03  0.278531D-02
  0.355700D+02  0.863457D-02
  0.125400D+02  0.199805D-01
  0.464400D+01  0.262908D-01
  0.129300D+01 -0.243845D-01
  0.511800D+00 -0.924934D-01
  0.178700D+00 -0.339683D+00
  0.246240D-01  0.345111D+00
  0.112530D-01  0.752750D+00
   s    10 1.00
  0.114200D+05  0.523000D-03
  0.171200D+04  0.404500D-02
  0.389300D+03  0.207750D-01
  0.110000D+03  0.807269D-01
  0.355700D+02  0.233074D+00
  0.125400D+02  0.433501D+00
  0.464400D+01  0.347472D+00
  0.129300D+01  0.412620D-01
  0.511800D+00 -0.850799D-02
  0.178700D+00  0.238400D-02
   s    10 1.00
  0.114200D+05 -0.115000D-03
  0.171200D+04 -0.895000D-03
  0.389300D+03 -0.462400D-02
  0.110000D+03 -0.185280D-01
  0.355700D+02 -0.573390D-01
  0.125400D+02 -0.132076D+00
  0.464400D+01 -0.172510D+00
  0.129300D+01  0.151814D+00
  0.511800D+00  0.599944D+00
  0.178700D+00  0.387462D+00
   s     1 1.00
  0.129300D+01  0.100000D+01
   s     1 1.00
  0.178700D+00  0.100000D+01
   p     5 1.00
  0.266300D+02  0.146700D-01
  0.594800D+01  0.917640D-01
  0.174200D+01  0.298683D+00
  0.555000D+00  0.498487D+00
  0.172500D+00  0.337023D+00
   p     1 1.00
  0.174200D+01  0.100000D+01
   p     1 1.00
  0.555000D+00  0.100000D+01
   d     1 1.00
  0.165400D+01  0.100000D+01
   d     1 1.00
  0.469000D+00  0.100000D+01
   f     1 1.00
  0.109300D+01  0.100000D+01
  
  2  0
   s    10 1.00
  0.823600D+04  0.531000D-03
  0.123500D+04  0.410800D-02
  0.280800D+03  0.210870D-01
  0.792700D+02  0.818530D-01
  0.255900D+02  0.234817D+00
  0.899700D+01  0.434401D+00
  0.331900D+01  0.346129D+00
  0.905900D+00  0.393780D-01
  0.364300D+00 -0.898300D-02
  0.128500D+00  0.238500D-02
   s    10 1.00
  0.823600D+04 -0.113000D-03
  0.123500D+04 -0.878000D-03
  0.280800D+03 -0.454000D-02
  0.792700D+02 -0.181330D-01
  0.255900D+02 -0.557600D-01
  0.899700D+01 -0.126895D+00
  0.331900D+01 -0.170352D+00
  0.905900D+00  0.140382D+00
  0.364300D+00  0.598684D+00
  0.128500D+00  0.395389D+00
   s     1 1.00
  0.905900D+00  0.100000D+01
   s     1 1.00
  0.364300D+00  0.100000D+01
   p     5 1.00
  0.187100D+02  0.140310D-01
  0.413300D+01  0.868660D-01
  0.120000D+01  0.290216D+00
  0.382700D+00  0.501008D+00
  0.120900D+00  0.343406D+00
   p     1 1.00
  0.382700D+00  0.100000D+01
   p     1 1.00
  0.120900D+00  0.100000D+01
   d     1 1.00
  0.109700D+01  0.100000D+01
   d     1 1.00
  0.318000D+00  0.100000D+01
   f     1 1.00
  0.761000D+00  0.100000D+01
  
  3  0
   s    10 1.00
  0.823600D+04  0.531000D-03
  0.123500D+04  0.410800D-02
  0.280800D+03  0.210870D-01
  0.792700D+02  0.818530D-01
  0.255900D+02  0.234817D+00
  0.899700D+01  0.434401D+00
  0.331900D+01  0.346129D+00
  0.905900D+00  0.393780D-01
  0.364300D+00 -0.898300D-02
  0.128500D+00  0.238500D-02
   s    10 1.00
  0.823600D+04 -0.113000D-03
  0.123500D+04 -0.878000D-03
  0.280800D+03 -0.454000D-02
  0.792700D+02 -0.181330D-01
  0.255900D+02 -0.557600D-01
  0.899700D+01 -0.126895D+00
  0.331900D+01 -0.170352D+00
  0.905900D+00  0.140382D+00
  0.364300D+00  0.598684D+00
  0.128500D+00  0.395389D+00
   s     1 1.00
  0.905900D+00  0.100000D+01
   s     1 1.00
  0.364300D+00  0.100000D+01
   p     5 1.00
  0.187100D+02  0.140310D-01
  0.413300D+01  0.868660D-01
  0.120000D+01  0.290216D+00
  0.382700D+00  0.501008D+00
  0.120900D+00  0.343406D+00
   p     1 1.00
  0.382700D+00  0.100000D+01
   p     1 1.00
  0.120900D+00  0.100000D+01
   d     1 1.00
  0.109700D+01  0.100000D+01
   d     1 1.00
  0.318000D+00  0.100000D+01
   f     1 1.00
  0.761000D+00  0.100000D+01
  
  4  0
   s    10 1.00
  0.823600D+04  0.531000D-03
  0.123500D+04  0.410800D-02
  0.280800D+03  0.210870D-01
  0.792700D+02  0.818530D-01
  0.255900D+02  0.234817D+00
  0.899700D+01  0.434401D+00
  0.331900D+01  0.346129D+00
  0.905900D+00  0.393780D-01
  0.364300D+00 -0.898300D-02
  0.128500D+00  0.238500D-02
   s    10 1.00
  0.823600D+04 -0.113000D-03
  0.123500D+04 -0.878000D-03
  0.280800D+03 -0.454000D-02
  0.792700D+02 -0.181330D-01
  0.255900D+02 -0.557600D-01
  0.899700D+01 -0.126895D+00
  0.331900D+01 -0.170352D+00
  0.905900D+00  0.140382D+00
  0.364300D+00  0.598684D+00
  0.128500D+00  0.395389D+00
   s     1 1.00
  0.905900D+00  0.100000D+01
   s     1 1.00
  0.364300D+00  0.100000D+01
   p     5 1.00
  0.187100D+02  0.140310D-01
  0.413300D+01  0.868660D-01
  0.120000D+01  0.290216D+00
  0.382700D+00  0.501008D+00
  0.120900D+00  0.343406D+00
   p     1 1.00
  0.382700D+00  0.100000D+01
   p     1 1.00
  0.120900D+00  0.100000D+01
   d     1 1.00
  0.109700D+01  0.100000D+01
   d     1 1.00
  0.318000D+00  0.100000D+01
   f     1 1.00
  0.761000D+00  0.100000D+01
  
  5  0
   s    10 1.00
  0.823600D+04  0.531000D-03
  0.123500D+04  0.410800D-02
  0.280800D+03  0.210870D-01
  0.792700D+02  0.818530D-01
  0.255900D+02  0.234817D+00
  0.899700D+01  0.434401D+00
  0.331900D+01  0.346129D+00
  0.905900D+00  0.393780D-01
  0.364300D+00 -0.898300D-02
  0.128500D+00  0.238500D-02
   s    10 1.00
  0.823600D+04 -0.113000D-03
  0.123500D+04 -0.878000D-03
  0.280800D+03 -0.454000D-02
  0.792700D+02 -0.181330D-01
  0.255900D+02 -0.557600D-01
  0.899700D+01 -0.126895D+00
  0.331900D+01 -0.170352D+00
  0.905900D+00  0.140382D+00
  0.364300D+00  0.598684D+00
  0.128500D+00  0.395389D+00
   s     1 1.00
  0.905900D+00  0.100000D+01
   s     1 1.00
  0.364300D+00  0.100000D+01
   p     5 1.00
  0.187100D+02  0.140310D-01
  0.413300D+01  0.868660D-01
  0.120000D+01  0.290216D+00
  0.382700D+00  0.501008D+00
  0.120900D+00  0.343406D+00
   p     1 1.00
  0.382700D+00  0.100000D+01
   p     1 1.00
  0.120900D+00  0.100000D+01
   d     1 1.00
  0.109700D+01  0.100000D+01
   d     1 1.00
  0.318000D+00  0.100000D+01
   f     1 1.00
  0.761000D+00  0.100000D+01
  
  6  0
   s    10 1.00
  0.823600D+04  0.531000D-03
  0.123500D+04  0.410800D-02
  0.280800D+03  0.210870D-01
  0.792700D+02  0.818530D-01
  0.255900D+02  0.234817D+00
  0.899700D+01  0.434401D+00
  0.331900D+01  0.346129D+00
  0.905900D+00  0.393780D-01
  0.364300D+00 -0.898300D-02
  0.128500D+00  0.238500D-02
   s    10 1.00
  0.823600D+04 -0.113000D-03
  0.123500D+04 -0.878000D-03
  0.280800D+03 -0.454000D-02
  0.792700D+02 -0.181330D-01
  0.255900D+02 -0.557600D-01
  0.899700D+01 -0.126895D+00
  0.331900D+01 -0.170352D+00
  0.905900D+00  0.140382D+00
  0.364300D+00  0.598684D+00
  0.128500D+00  0.395389D+00
   s     1 1.00
  0.905900D+00  0.100000D+01
   s     1 1.00
  0.364300D+00  0.100000D+01
   p     5 1.00
  0.187100D+02  0.140310D-01
  0.413300D+01  0.868660D-01
  0.120000D+01  0.290216D+00
  0.382700D+00  0.501008D+00
  0.120900D+00  0.343406D+00
   p     1 1.00
  0.382700D+00  0.100000D+01
   p     1 1.00
  0.120900D+00  0.100000D+01
   d     1 1.00
  0.109700D+01  0.100000D+01
   d     1 1.00
  0.318000D+00  0.100000D+01
   f     1 1.00
  0.761000D+00  0.100000D+01
  
  7  0
   s    10 1.00
  0.823600D+04  0.531000D-03
  0.123500D+04  0.410800D-02
  0.280800D+03  0.210870D-01
  0.792700D+02  0.818530D-01
  0.255900D+02  0.234817D+00
  0.899700D+01  0.434401D+00
  0.331900D+01  0.346129D+00
  0.905900D+00  0.393780D-01
  0.364300D+00 -0.898300D-02
  0.128500D+00  0.238500D-02
   s    10 1.00
  0.823600D+04 -0.113000D-03
  0.123500D+04 -0.878000D-03
  0.280800D+03 -0.454000D-02
  0.792700D+02 -0.181330D-01
  0.255900D+02 -0.557600D-01
  0.899700D+01 -0.126895D+00
  0.331900D+01 -0.170352D+00
  0.905900D+00  0.140382D+00
  0.364300D+00  0.598684D+00
  0.128500D+00  0.395389D+00
   s     1 1.00
  0.905900D+00  0.100000D+01
   s     1 1.00
  0.364300D+00  0.100000D+01
   p     5 1.00
  0.187100D+02  0.140310D-01
  0.413300D+01  0.868660D-01
  0.120000D+01  0.290216D+00
  0.382700D+00  0.501008D+00
  0.120900D+00  0.343406D+00
   p     1 1.00
  0.382700D+00  0.100000D+01
   p     1 1.00
  0.120900D+00  0.100000D+01
   d     1 1.00
  0.109700D+01  0.100000D+01
   d     1 1.00
  0.318000D+00  0.100000D+01
   f     1 1.00
  0.761000D+00  0.100000D+01
  
  8  0
   s     4 1.00
  0.130100D+02  0.196850D-01
  0.196200D+01  0.137977D+00
  0.444600D+00  0.478148D+00
  0.122000D+00  0.501240D+00
   s     1 1.00
  0.122000D+00  0.100000D+01
   p     1 1.00
  0.727000D+00  0.100000D+01
  
  9  0
   s     4 1.00
  0.130100D+02  0.196850D-01
  0.196200D+01  0.137977D+00
  0.444600D+00  0.478148D+00
  0.122000D+00  0.501240D+00
   s     1 1.00
  0.122000D+00  0.100000D+01
   p     1 1.00
  0.727000D+00  0.100000D+01
  
 10  0
   s     4 1.00
  0.130100D+02  0.196850D-01
  0.196200D+01  0.137977D+00
  0.444600D+00  0.478148D+00
  0.122000D+00  0.501240D+00
   s     1 1.00
  0.122000D+00  0.100000D+01
   p     1 1.00
  0.727000D+00  0.100000D+01
  
 11  0
   s     4 1.00
  0.130100D+02  0.196850D-01
  0.196200D+01  0.137977D+00
  0.444600D+00  0.478148D+00
  0.122000D+00  0.501240D+00
   s     1 1.00
  0.122000D+00  0.100000D+01
   p     1 1.00
  0.727000D+00  0.100000D+01
  
 12  0
   s     4 1.00
  0.130100D+02  0.196850D-01
  0.196200D+01  0.137977D+00
  0.444600D+00  0.478148D+00
  0.122000D+00  0.501240D+00
   s     1 1.00
  0.122000D+00  0.100000D+01
   p     1 1.00
  0.727000D+00  0.100000D+01
  
 13  0
   s     4 1.00
  0.130100D+02  0.196850D-01
  0.196200D+01  0.137977D+00
  0.444600D+00  0.478148D+00
  0.122000D+00  0.501240D+00
   s     1 1.00
  0.122000D+00  0.100000D+01
   p     1 1.00
  0.727000D+00  0.100000D+01
  
 14  0
   s     4 1.00
  0.130100D+02  0.196850D-01
  0.196200D+01  0.137977D+00
  0.444600D+00  0.478148D+00
  0.122000D+00  0.501240D+00
   s     1 1.00
  0.122000D+00  0.100000D+01
   p     1 1.00
  0.727000D+00  0.100000D+01
  
[MO]
 Sym= __1_a__
 Ene=  0.000000000000000E+000
 Spin= Alpha
 Occup=    2.00000000000000     
                     1  1.003691139730130E-004
                     2  0.997542639048609     
                     3  1.511000232264170E-002
                     4  2.220853998017000E-003
                     5  5.703140034362740E-004
                     6 -2.550896590038510E-006
                     7 -3.958500704969580E-006
                     8  3.085283788707920E-003
                     9  3.101508664680020E-007
                    10  4.968700058651190E-007
                    11 -3.784610028857240E-004
                    12  5.237016383659750E-007
                    13  7.765301140995860E-007
                    14 -6.329991530905930E-004
                    15  1.375183296497984E-004
                    16 -4.071434910022200E-008
                    17 -3.860059017219280E-007
                    18  1.011844230132398E-004
                    19  5.666282444622160E-005
                    20  7.837806389325280E-005
                    21 -8.532642648427940E-007
                    22  2.741656531627670E-007
                    23 -5.238411444454200E-004
                    24 -2.382163061345450E-004
                    25 -1.944685025911624E-004
                    26 -5.596873850334882E-007
                    27 -5.355353615403698E-007
                    28 -6.312364872637480E-005
                    29 -4.030642271840220E-005
                    30 -1.163811696749912E-009
                    31  1.392414013981655E-007
                    32 -2.098603415887900E-004
                    33  3.088687413280620E-003
                    34  1.168017273154370E-004
                    35 -6.792564696564859E-004
                    36  5.928629227492560E-006
                    37  9.157941221118250E-006
                    38 -7.155976649951630E-003
                    39  1.259522562195430E-007
                    40  1.091500291297700E-007
                    41 -1.368127902576950E-004
                    42 -3.113962217246970E-006
                    43 -4.754226557249050E-006
                    44  3.750301492443850E-003
                    45  4.011374284586260E-004
                    46 -4.890957651573270E-007
                    47 -9.944800948128329E-007
                    48  9.631478034337820E-005
                    49  5.820875138965550E-006
                    50  7.739469789796247E-004
                    51 -9.225304924512550E-007
                    52 -2.018109912642260E-006
                    53  1.460671455657404E-004
                    54  4.663007165055440E-005
                    55 -4.817685662554209E-005
                    56 -6.829879638014008E-008
                    57 -2.126108167418900E-007
                    58  2.680651371784740E-005
                    59 -3.210471260524940E-006
                    60  3.199065077323701E-008
                    61 -4.232169087499466E-008
                    62 -2.008234927099080E-004
                    63 -1.833167438160080E-003
                    64  1.715567732427480E-006
                    65  8.637513377471170E-004
                    66  7.008639119935540E-005
                    67 -9.434623862378129E-004
                    68  1.333457603156910E-003
                    69  7.318797613386600E-006
                    70  1.140051270278250E-004
                    71  6.443537459582570E-005
                    72  5.487921603902750E-005
                    73 -6.319603664125500E-004
                    74 -3.518325144456970E-004
                    75  9.876822283981095E-005
                    76  1.845550900438480E-006
                    77 -1.119715445549780E-005
                    78  3.658659993169700E-005
                    79  4.859059222961540E-006
                    80  4.547420822639526E-005
                    81 -1.699919992278750E-006
                    82 -4.371142349681660E-005
                    83  3.144299604285900E-005
                    84  1.351050962920090E-005
                    85 -6.817121146873946E-005
                    86  2.707029844677615E-006
                    87  2.593811326538067E-006
                    88  1.970964208748440E-005
                    89  9.584757716880310E-007
                    90  5.879693810690976E-006
                    91  2.750757782954827E-005
                    92 -2.007827287468070E-004
                    93 -1.833005214909540E-003
                    94  1.899687567056560E-006
                    95  8.631603245615450E-004
                    96 -7.230158480545691E-005
                    97  9.400776561349250E-004
                    98  1.335868927421920E-003
                    99 -7.400436104136430E-006
                   100 -1.143323158197590E-004
                   101  6.342829170809501E-005
                   102 -5.424416576832240E-005
                   103  6.322068691272830E-004
                   104 -3.501434585485980E-004
                   105  9.877476839366840E-005
                   106 -2.056347525109370E-006
                   107  1.069320052588920E-005
                   108  3.661948440991700E-005
                   109  4.845347675993050E-006
                   110  4.517488800392830E-005
                   111  1.676794509533100E-006
                   112  4.333561321538870E-005
                   113  3.145149173856080E-005
                   114  1.342430650954320E-005
                   115 -6.806553672521422E-005
                   116 -2.925897434398186E-006
                   117 -3.095094134648647E-006
                   118  1.962688949096622E-005
                   119  9.016280777897380E-007
                   120 -5.843017253892644E-006
                   121 -2.756950026804915E-005
                   122 -1.649406450897250E-004
                   123  2.862597688426000E-005
                   124  7.099208164029870E-005
                   125  3.104688770101080E-004
                   126 -4.343467578709420E-005
                   127  6.569869073460229E-005
                   128 -9.071398345192790E-004
                   129 -2.569164185844920E-006
                   130  1.750488094877310E-005
                   131  1.687323860033180E-004
                   132  3.462485419867070E-006
                   133  1.398477110887980E-005
                   134  5.470585770728540E-004
                   135  4.796027978691960E-006
                   136  1.305646736052660E-007
                   137  8.700383248862340E-006
                   138 -1.967955196904534E-006
                   139  5.122334939472950E-007
                   140 -1.195066845028847E-004
                   141 -8.525522786519940E-006
                   142  7.547962371778320E-005
                   143  3.802248005339300E-005
                   144  1.945946618633230E-006
                   145 -2.133691446771908E-005
                   146  5.161838353328440E-007
                   147 -8.307056831451878E-006
                   148 -7.886796149598159E-006
                   149 -1.429603139040880E-006
                   150 -1.028583210944328E-006
                   151 -2.486830505428197E-006
                   152 -1.654765881808300E-004
                   153  2.672488605041810E-005
                   154  7.044043186262400E-005
                   155  3.139016889790010E-004
                   156  4.492869161845770E-005
                   157 -6.331406262776870E-005
                   158 -9.071965233107860E-004
                   159  2.349757851080250E-006
                   160 -1.836182307454770E-005
                   161  1.683018251282800E-004
                   162 -4.430243655819460E-006
                   163 -1.477737933927860E-005
                   164  5.471788689492170E-004
                   165  4.817559910330355E-006
                   166 -1.479675781900880E-007
                   167 -8.725267129568899E-006
                   168 -2.048164302829240E-006
                   169  5.151587286101340E-007
                   170 -1.196709286269336E-004
                   171  8.954199748243139E-006
                   172 -7.532672343391809E-005
                   173  3.775808544553620E-005
                   174  2.041045454269170E-006
                   175 -2.128656222586770E-005
                   176 -6.262835997013819E-007
                   177  8.208721834001326E-006
                   178 -7.904766819262240E-006
                   179 -1.451984281478880E-006
                   180  1.019683648772652E-006
                   181  2.525728837305616E-006
                   182 -1.388572295520280E-004
                   183 -3.755403835583020E-004
                   184  2.062340516476990E-005
                   185  2.879871190398120E-004
                   186  3.203003545013430E-008
                   187  1.673479937175020E-007
                   188 -5.241450355126470E-005
                   189  3.737492453087520E-008
                   190 -5.264852461604590E-007
                   191  1.719236010445650E-005
                   192  8.832406086734460E-008
                   193  9.751473435071310E-008
                   194 -1.017778986786360E-004
                   195  2.112163367632128E-005
                   196 -2.482914016356750E-008
                   197 -2.658211235735900E-008
                   198  7.111179370151900E-006
                   199  1.996961417600640E-006
                   200  2.408494474941878E-005
                   201 -4.898184583649470E-008
                   202  1.815039876165380E-007
                   203  8.245243011257179E-006
                   204  4.283074419296850E-007
                   205 -1.188782681969546E-005
                   206 -1.692731359948120E-008
                   207 -4.982105169502805E-008
                   208  3.055457330650740E-006
                   209  1.139527787691800E-006
                   210  1.018033184053430E-008
                   211  2.525249860142478E-008
                   212  7.218125749940920E-003
                   213 -3.829114770920840E-003
                   214  7.081682938239110E-004
                   215  1.498042402534410E-004
                   216  4.753265530574470E-004
                   217  7.218112822624080E-003
                   218 -3.829111555814060E-003
                   219 -7.089537136578290E-004
                   220 -1.510199054534420E-004
                   221  4.737668807156540E-004
                   222 -7.106128051498210E-004
                   223 -2.023259072163790E-004
                   224  3.984325572741650E-006
                   225 -4.146338616393030E-005
                   226 -5.098973671166830E-005
                   227 -7.106849551154200E-004
                   228 -2.019104100587540E-004
                   229 -3.898791770093270E-006
                   230  4.157258341643600E-005
                   231 -5.092092567637300E-005
                   232 -2.995584922460860E-004
                   233 -1.922200968660690E-004
                   234 -7.918234039281560E-008
                   235 -1.756323907227350E-005
                   236 -3.960334074799130E-006
                   237 -2.996086318435270E-004
                   238 -1.923854098510720E-004
                   239  7.993105206286090E-008
                   240  1.762517547351250E-005
                   241 -3.861118601048730E-006
                   242  1.128704308595860E-004
                   243  1.693555173603440E-005
                   244 -1.252630149581150E-008
                   245 -4.689822989398220E-008
                   246  1.714966636689190E-005
 Sym= __2_a__
 Ene=  0.000000000000000E+000
 Spin= Alpha
 Occup=    2.00000000000000     
                     1 -2.078279824837920E-006
                     2 -5.849259174904300E-005
                     3  1.693245121052770E-003
                     4  2.993849308912360E-005
                     5  1.086231377824180E-003
                     6 -1.403739294820040E-006
                     7 -2.149784268675880E-006
                     8  1.688246657432320E-003
                     9  9.321567608587220E-008
                    10  1.374200807969560E-007
                    11 -1.105337141313470E-004
                    12 -3.440280818527190E-008
                    13 -5.128573273095380E-008
                    14  4.306824610919320E-005
                    15  5.380682893238945E-005
                    16 -8.311883632297110E-008
                    17 -1.309722363882220E-007
                    18  4.832308326554280E-006
                    19 -7.537046911910630E-006
                    20 -7.488598820523746E-005
                    21  1.439966501767730E-007
                    22  1.951760855194500E-007
                    23 -2.747012044771080E-006
                    24  2.941953201359090E-005
                    25  1.898425686745255E-004
                    26  2.840072881491776E-007
                    27  6.811847291167918E-007
                    28 -5.413508198377640E-005
                    29 -1.568809797016510E-005
                    30 -3.020181894117252E-008
                    31  1.009913125771110E-007
                    32   1.00104598096437     
                    33  8.721614424580500E-003
                    34  2.555842473592000E-003
                    35 -7.975109986844260E-003
                    36  2.136444617789930E-006
                    37  3.287460715907760E-006
                    38 -2.578342379647460E-003
                    39 -9.191216313578370E-007
                    40 -1.409179380593680E-006
                    41  1.108011182649450E-003
                    42 -2.713568825231450E-006
                    43 -4.255293405179160E-006
                    44  3.281120570346910E-003
                    45  2.464506415139420E-004
                    46 -7.119271637678490E-007
                    47 -1.101056499826400E-007
                    48 -3.693715246789180E-004
                    49 -4.057238020167490E-005
                    50  3.012910671685424E-004
                    51  3.390678939606340E-007
                    52 -1.547872256340960E-006
                    53  7.720045647915820E-004
                    54  1.030511498498590E-004
                    55  2.724801847896438E-004
                    56  3.189549236925212E-007
                    57  1.154751568853250E-006
                    58 -1.581223002152832E-004
                    59 -1.321411619496740E-005
                    60 -1.395620565224130E-007
                    61  2.623446509980350E-007
                    62  1.276810072677900E-002
                    63 -1.688880495720270E-003
                    64 -2.870393901207760E-004
                    65  2.878188843992480E-003
                    66 -1.833326797117360E-005
                    67  2.850113872197940E-004
                    68 -1.767057258683300E-004
                    69 -3.574985595047400E-005
                    70  5.085463870509171E-004
                    71  1.026295815911890E-004
                    72  1.411315975694730E-004
                    73 -1.737049737881920E-003
                    74  1.857832253393210E-004
                    75 -2.874288678347900E-005
                    76  8.063584726898270E-007
                    77  1.422780585339330E-005
                    78  1.719437277287624E-005
                    79  1.791064670477640E-006
                    80  7.584646201134991E-004
                    81  3.935229746441070E-005
                    82 -4.127646079868940E-004
                    83 -4.201678021229600E-005
                    84 -1.109855666188800E-005
                    85  4.623363720560169E-005
                    86 -7.722512268466928E-008
                    87  1.962575046808509E-005
                    88 -1.053401880362710E-004
                    89 -1.260626829214650E-005
                    90  1.001823804593077E-005
                    91  4.722085152593916E-005
                    92  1.276808890620960E-002
                    93 -1.688957339699070E-003
                    94 -2.870878209616780E-004
                    95  2.878390719488880E-003
                    96  1.862655726700490E-005
                    97 -2.845616597398540E-004
                    98 -1.774306503552670E-004
                    99  3.557641339742940E-005
                   100 -5.087942859418810E-004
                   101  1.015471088678240E-004
                   102 -1.414558774362480E-004
                   103  1.736719201651430E-003
                   104  1.898343432726640E-004
                   105 -2.879381984771308E-005
                   106 -6.906337801671520E-007
                   107 -1.414742499394160E-005
                   108  1.715805425021326E-005
                   109  1.816589781015580E-006
                   110  7.602554017598040E-004
                   111 -4.163699641709990E-005
                   112  4.095406653955150E-004
                   113 -4.087677121836200E-005
                   114 -1.167408087305040E-005
                   115  4.633744498036316E-005
                   116 -6.304291049020303E-008
                   117 -1.894214358245333E-005
                   118 -1.055426121798660E-004
                   119 -1.268254009279840E-005
                   120 -1.019261389596244E-005
                   121 -4.686474488589935E-005
                   122 -1.216959099616210E-004
                   123 -7.585811420085491E-004
                   124  2.296453495853610E-004
                   125 -2.044425082525570E-004
                   126 -2.090316061146230E-006
                   127 -3.622189234092710E-005
                   128 -1.627900490968910E-004
                   129  1.515632417417110E-005
                   130  2.102529739136120E-005
                   131  5.831612317587700E-004
                   132 -2.211541807738880E-005
                   133  2.925567379530540E-004
                   134  6.085798665909650E-004
                   135 -2.611175656677675E-005
                   136 -4.416877921402350E-006
                   137  4.278684400994850E-005
                   138  1.539283102553990E-005
                   139  4.555823062145980E-006
                   140 -2.936628555678500E-004
                   141  4.603064407162350E-006
                   142 -2.286087130420160E-004
                   143 -2.495626909916220E-005
                   144 -1.863710394319560E-005
                   145 -7.923440052105801E-006
                   146  4.664376490683191E-006
                   147 -2.261925172320244E-005
                   148 -3.104726037644060E-005
                   149 -6.126218935386710E-006
                   150 -4.904467700184543E-007
                   151 -5.879676664582417E-006
                   152 -1.214179249619730E-004
                   153 -7.576610415332930E-004
                   154  2.297414019082130E-004
                   155 -2.055337979387060E-004
                   156  2.361305275477470E-006
                   157  3.662344216763610E-005
                   158 -1.626987892320390E-004
                   159 -1.613430762273790E-005
                   160 -2.243884267451430E-005