[Molden Format]
[Atoms] AU
  N     1    7    -0.0002181400   -0.0006562800   -4.2911052200        
  C     2    6    -0.0001515400   -0.0005481500   -1.7771535500        
  C     3    6     0.0067812600   -2.3393310200   -0.4110833300        
  C     4    6    -0.0070119700    2.3383522600   -0.4112841700        
  C     5    6     0.0110118500   -2.3001961800    2.1640074000        
  C     6    6    -0.0111060800    2.2994389500    2.1638101400        
  C     7    6    -0.0000123600   -0.0003222000    3.4754079600        
  H     8    1    -0.1133042300   -1.6497960300   -5.3105745500        
  H     9    1     0.1128139400    1.6483957600   -5.3107224200        
  H    10    1     0.0179638000   -4.0749124400   -1.4447225300        
  H    11    1    -0.0182492900    4.0738447400   -1.4450720800        
  H    12    1     0.0238365600   -4.0422884200    3.1965701800        
  H    13    1    -0.0238760600    4.0416200100    3.1962237300        
  H    14    1     0.0000413500   -0.0002350400    5.5019282500        
[5D]
[7F]
[GTO]
  1  0
   s    12 1.00
  0.114200D+05  0.172695D-04
  0.171200D+04  0.134411D-03
  0.389300D+03  0.694561D-03
  0.110000D+03  0.278531D-02
  0.355700D+02  0.863457D-02
  0.125400D+02  0.199805D-01
  0.464400D+01  0.262908D-01
  0.129300D+01 -0.243845D-01
  0.511800D+00 -0.924934D-01
  0.178700D+00 -0.339683D+00
  0.246240D-01  0.345111D+00
  0.112530D-01  0.752750D+00
   s    10 1.00
  0.114200D+05  0.523000D-03
  0.171200D+04  0.404500D-02
  0.389300D+03  0.207750D-01
  0.110000D+03  0.807269D-01
  0.355700D+02  0.233074D+00
  0.125400D+02  0.433501D+00
  0.464400D+01  0.347472D+00
  0.129300D+01  0.412620D-01
  0.511800D+00 -0.850799D-02
  0.178700D+00  0.238400D-02
   s    10 1.00
  0.114200D+05 -0.115000D-03
  0.171200D+04 -0.895000D-03
  0.389300D+03 -0.462400D-02
  0.110000D+03 -0.185280D-01
  0.355700D+02 -0.573390D-01
  0.125400D+02 -0.132076D+00
  0.464400D+01 -0.172510D+00
  0.129300D+01  0.151814D+00
  0.511800D+00  0.599944D+00
  0.178700D+00  0.387462D+00
   s     1 1.00
  0.129300D+01  0.100000D+01
   s     1 1.00
  0.178700D+00  0.100000D+01
   p     5 1.00
  0.266300D+02  0.146700D-01
  0.594800D+01  0.917640D-01
  0.174200D+01  0.298683D+00
  0.555000D+00  0.498487D+00
  0.172500D+00  0.337023D+00
   p     1 1.00
  0.174200D+01  0.100000D+01
   p     1 1.00
  0.555000D+00  0.100000D+01
   d     1 1.00
  0.165400D+01  0.100000D+01
   d     1 1.00
  0.469000D+00  0.100000D+01
   f     1 1.00
  0.109300D+01  0.100000D+01
  
  2  0
   s    10 1.00
  0.823600D+04  0.531000D-03
  0.123500D+04  0.410800D-02
  0.280800D+03  0.210870D-01
  0.792700D+02  0.818530D-01
  0.255900D+02  0.234817D+00
  0.899700D+01  0.434401D+00
  0.331900D+01  0.346129D+00
  0.905900D+00  0.393780D-01
  0.364300D+00 -0.898300D-02
  0.128500D+00  0.238500D-02
   s    10 1.00
  0.823600D+04 -0.113000D-03
  0.123500D+04 -0.878000D-03
  0.280800D+03 -0.454000D-02
  0.792700D+02 -0.181330D-01
  0.255900D+02 -0.557600D-01
  0.899700D+01 -0.126895D+00
  0.331900D+01 -0.170352D+00
  0.905900D+00  0.140382D+00
  0.364300D+00  0.598684D+00
  0.128500D+00  0.395389D+00
   s     1 1.00
  0.905900D+00  0.100000D+01
   s     1 1.00
  0.364300D+00  0.100000D+01
   p     5 1.00
  0.187100D+02  0.140310D-01
  0.413300D+01  0.868660D-01
  0.120000D+01  0.290216D+00
  0.382700D+00  0.501008D+00
  0.120900D+00  0.343406D+00
   p     1 1.00
  0.382700D+00  0.100000D+01
   p     1 1.00
  0.120900D+00  0.100000D+01
   d     1 1.00
  0.109700D+01  0.100000D+01
   d     1 1.00
  0.318000D+00  0.100000D+01
   f     1 1.00
  0.761000D+00  0.100000D+01
  
  3  0
   s    10 1.00
  0.823600D+04  0.531000D-03
  0.123500D+04  0.410800D-02
  0.280800D+03  0.210870D-01
  0.792700D+02  0.818530D-01
  0.255900D+02  0.234817D+00
  0.899700D+01  0.434401D+00
  0.331900D+01  0.346129D+00
  0.905900D+00  0.393780D-01
  0.364300D+00 -0.898300D-02
  0.128500D+00  0.238500D-02
   s    10 1.00
  0.823600D+04 -0.113000D-03
  0.123500D+04 -0.878000D-03
  0.280800D+03 -0.454000D-02
  0.792700D+02 -0.181330D-01
  0.255900D+02 -0.557600D-01
  0.899700D+01 -0.126895D+00
  0.331900D+01 -0.170352D+00
  0.905900D+00  0.140382D+00
  0.364300D+00  0.598684D+00
  0.128500D+00  0.395389D+00
   s     1 1.00
  0.905900D+00  0.100000D+01
   s     1 1.00
  0.364300D+00  0.100000D+01
   p     5 1.00
  0.187100D+02  0.140310D-01
  0.413300D+01  0.868660D-01
  0.120000D+01  0.290216D+00
  0.382700D+00  0.501008D+00
  0.120900D+00  0.343406D+00
   p     1 1.00
  0.382700D+00  0.100000D+01
   p     1 1.00
  0.120900D+00  0.100000D+01
   d     1 1.00
  0.109700D+01  0.100000D+01
   d     1 1.00
  0.318000D+00  0.100000D+01
   f     1 1.00
  0.761000D+00  0.100000D+01
  
  4  0
   s    10 1.00
  0.823600D+04  0.531000D-03
  0.123500D+04  0.410800D-02
  0.280800D+03  0.210870D-01
  0.792700D+02  0.818530D-01
  0.255900D+02  0.234817D+00
  0.899700D+01  0.434401D+00
  0.331900D+01  0.346129D+00
  0.905900D+00  0.393780D-01
  0.364300D+00 -0.898300D-02
  0.128500D+00  0.238500D-02
   s    10 1.00
  0.823600D+04 -0.113000D-03
  0.123500D+04 -0.878000D-03
  0.280800D+03 -0.454000D-02
  0.792700D+02 -0.181330D-01
  0.255900D+02 -0.557600D-01
  0.899700D+01 -0.126895D+00
  0.331900D+01 -0.170352D+00
  0.905900D+00  0.140382D+00
  0.364300D+00  0.598684D+00
  0.128500D+00  0.395389D+00
   s     1 1.00
  0.905900D+00  0.100000D+01
   s     1 1.00
  0.364300D+00  0.100000D+01
   p     5 1.00
  0.187100D+02  0.140310D-01
  0.413300D+01  0.868660D-01
  0.120000D+01  0.290216D+00
  0.382700D+00  0.501008D+00
  0.120900D+00  0.343406D+00
   p     1 1.00
  0.382700D+00  0.100000D+01
   p     1 1.00
  0.120900D+00  0.100000D+01
   d     1 1.00
  0.109700D+01  0.100000D+01
   d     1 1.00
  0.318000D+00  0.100000D+01
   f     1 1.00
  0.761000D+00  0.100000D+01
  
  5  0
   s    10 1.00
  0.823600D+04  0.531000D-03
  0.123500D+04  0.410800D-02
  0.280800D+03  0.210870D-01
  0.792700D+02  0.818530D-01
  0.255900D+02  0.234817D+00
  0.899700D+01  0.434401D+00
  0.331900D+01  0.346129D+00
  0.905900D+00  0.393780D-01
  0.364300D+00 -0.898300D-02
  0.128500D+00  0.238500D-02
   s    10 1.00
  0.823600D+04 -0.113000D-03
  0.123500D+04 -0.878000D-03
  0.280800D+03 -0.454000D-02
  0.792700D+02 -0.181330D-01
  0.255900D+02 -0.557600D-01
  0.899700D+01 -0.126895D+00
  0.331900D+01 -0.170352D+00
  0.905900D+00  0.140382D+00
  0.364300D+00  0.598684D+00
  0.128500D+00  0.395389D+00
   s     1 1.00
  0.905900D+00  0.100000D+01
   s     1 1.00
  0.364300D+00  0.100000D+01
   p     5 1.00
  0.187100D+02  0.140310D-01
  0.413300D+01  0.868660D-01
  0.120000D+01  0.290216D+00
  0.382700D+00  0.501008D+00
  0.120900D+00  0.343406D+00
   p     1 1.00
  0.382700D+00  0.100000D+01
   p     1 1.00
  0.120900D+00  0.100000D+01
   d     1 1.00
  0.109700D+01  0.100000D+01
   d     1 1.00
  0.318000D+00  0.100000D+01
   f     1 1.00
  0.761000D+00  0.100000D+01
  
  6  0
   s    10 1.00
  0.823600D+04  0.531000D-03
  0.123500D+04  0.410800D-02
  0.280800D+03  0.210870D-01
  0.792700D+02  0.818530D-01
  0.255900D+02  0.234817D+00
  0.899700D+01  0.434401D+00
  0.331900D+01  0.346129D+00
  0.905900D+00  0.393780D-01
  0.364300D+00 -0.898300D-02
  0.128500D+00  0.238500D-02
   s    10 1.00
  0.823600D+04 -0.113000D-03
  0.123500D+04 -0.878000D-03
  0.280800D+03 -0.454000D-02
  0.792700D+02 -0.181330D-01
  0.255900D+02 -0.557600D-01
  0.899700D+01 -0.126895D+00
  0.331900D+01 -0.170352D+00
  0.905900D+00  0.140382D+00
  0.364300D+00  0.598684D+00
  0.128500D+00  0.395389D+00
   s     1 1.00
  0.905900D+00  0.100000D+01
   s     1 1.00
  0.364300D+00  0.100000D+01
   p     5 1.00
  0.187100D+02  0.140310D-01
  0.413300D+01  0.868660D-01
  0.120000D+01  0.290216D+00
  0.382700D+00  0.501008D+00
  0.120900D+00  0.343406D+00
   p     1 1.00
  0.382700D+00  0.100000D+01
   p     1 1.00
  0.120900D+00  0.100000D+01
   d     1 1.00
  0.109700D+01  0.100000D+01
   d     1 1.00
  0.318000D+00  0.100000D+01
   f     1 1.00
  0.761000D+00  0.100000D+01
  
  7  0
   s    10 1.00
  0.823600D+04  0.531000D-03
  0.123500D+04  0.410800D-02
  0.280800D+03  0.210870D-01
  0.792700D+02  0.818530D-01
  0.255900D+02  0.234817D+00
  0.899700D+01  0.434401D+00
  0.331900D+01  0.346129D+00
  0.905900D+00  0.393780D-01
  0.364300D+00 -0.898300D-02
  0.128500D+00  0.238500D-02
   s    10 1.00
  0.823600D+04 -0.113000D-03
  0.123500D+04 -0.878000D-03
  0.280800D+03 -0.454000D-02
  0.792700D+02 -0.181330D-01
  0.255900D+02 -0.557600D-01
  0.899700D+01 -0.126895D+00
  0.331900D+01 -0.170352D+00
  0.905900D+00  0.140382D+00
  0.364300D+00  0.598684D+00
  0.128500D+00  0.395389D+00
   s     1 1.00
  0.905900D+00  0.100000D+01
   s     1 1.00
  0.364300D+00  0.100000D+01
   p     5 1.00
  0.187100D+02  0.140310D-01
  0.413300D+01  0.868660D-01
  0.120000D+01  0.290216D+00
  0.382700D+00  0.501008D+00
  0.120900D+00  0.343406D+00
   p     1 1.00
  0.382700D+00  0.100000D+01
   p     1 1.00
  0.120900D+00  0.100000D+01
   d     1 1.00
  0.109700D+01  0.100000D+01
   d     1 1.00
  0.318000D+00  0.100000D+01
   f     1 1.00
  0.761000D+00  0.100000D+01
  
  8  0
   s     4 1.00
  0.130100D+02  0.196850D-01
  0.196200D+01  0.137977D+00
  0.444600D+00  0.478148D+00
  0.122000D+00  0.501240D+00
   s     1 1.00
  0.122000D+00  0.100000D+01
   p     1 1.00
  0.727000D+00  0.100000D+01
  
  9  0
   s     4 1.00
  0.130100D+02  0.196850D-01
  0.196200D+01  0.137977D+00
  0.444600D+00  0.478148D+00
  0.122000D+00  0.501240D+00
   s     1 1.00
  0.122000D+00  0.100000D+01
   p     1 1.00
  0.727000D+00  0.100000D+01
  
 10  0
   s     4 1.00
  0.130100D+02  0.196850D-01
  0.196200D+01  0.137977D+00
  0.444600D+00  0.478148D+00
  0.122000D+00  0.501240D+00
   s     1 1.00
  0.122000D+00  0.100000D+01
   p     1 1.00
  0.727000D+00  0.100000D+01
  
 11  0
   s     4 1.00
  0.130100D+02  0.196850D-01
  0.196200D+01  0.137977D+00
  0.444600D+00  0.478148D+00
  0.122000D+00  0.501240D+00
   s     1 1.00
  0.122000D+00  0.100000D+01
   p     1 1.00
  0.727000D+00  0.100000D+01
  
 12  0
   s     4 1.00
  0.130100D+02  0.196850D-01
  0.196200D+01  0.137977D+00
  0.444600D+00  0.478148D+00
  0.122000D+00  0.501240D+00
   s     1 1.00
  0.122000D+00  0.100000D+01
   p     1 1.00
  0.727000D+00  0.100000D+01
  
 13  0
   s     4 1.00
  0.130100D+02  0.196850D-01
  0.196200D+01  0.137977D+00
  0.444600D+00  0.478148D+00
  0.122000D+00  0.501240D+00
   s     1 1.00
  0.122000D+00  0.100000D+01
   p     1 1.00
  0.727000D+00  0.100000D+01
  
 14  0
   s     4 1.00
  0.130100D+02  0.196850D-01
  0.196200D+01  0.137977D+00
  0.444600D+00  0.478148D+00
  0.122000D+00  0.501240D+00
   s     1 1.00
  0.122000D+00  0.100000D+01
   p     1 1.00
  0.727000D+00  0.100000D+01
  
[MO]
 Sym= __1_a__
 Ene=  0.000000000000000E+000
 Spin= Alpha
 Occup=    2.00000000000000     
                     1  4.183825468862300E-005
                     2  0.998069991702338     
                     3  9.264716985217809E-003
                     4  2.061765822840100E-003
                     5  1.529256585972800E-003
                     6  1.183507307478520E-007
                     7  1.810476348364210E-007
                     8  4.483948299360480E-003
                     9 -4.169041754864440E-009
                    10  6.023650507606470E-009
                    11 -1.193346286268780E-004
                    12 -3.315621235099300E-009
                    13 -3.586360709565090E-008
                    14 -8.176901348510449E-005
                    15  2.688550948064391E-004
                    16  1.499752937544280E-008
                    17  1.521327489974000E-008
                    18 -1.170913239845756E-004
                    19  1.245955767736580E-005
                    20  1.637396057066518E-004
                    21 -5.375196205893760E-009
                    22  1.369573875584390E-008
                    23  5.783473730830820E-004
                    24 -6.849255894189251E-005
                    25 -1.897077649434198E-004
                    26  9.287211869930366E-009
                    27  2.801948839992434E-008
                    28  9.136716691701800E-005
                    29 -7.247093349871150E-006
                    30 -3.259375342275824E-009
                    31  3.336119015545451E-009
                    32 -3.698725173001310E-004
                    33  2.714210285544520E-003
                    34  1.460422272663740E-004
                    35 -2.459767032026320E-004
                    36 -1.924880386544670E-007
                    37 -2.877084586156030E-007
                    38 -7.108737364471190E-003
                    39  1.285795357971110E-008
                    40 -3.344387754740970E-008
                    41  3.854202125870110E-004
                    42  1.172455763743390E-007
                    43  2.278660661640630E-007
                    44  4.408072030482700E-003
                    45  3.492302000444117E-004
                    46  1.243511712675170E-008
                    47  4.174783024065680E-008
                    48  1.383786075026426E-004
                    49 -2.174272623680900E-006
                    50  4.794734401316360E-005
                    51  1.459861418601360E-008
                    52 -1.587432985921190E-007
                    53 -4.576502623164140E-004
                    54  1.784197292244760E-005
                    55 -1.114071229315377E-004
                    56  4.225515092274108E-009
                    57  1.474973938688421E-008
                    58  7.800178529882820E-005
                    59 -3.498980153723720E-006
                    60 -2.570682427401004E-009
                    61  3.006413397464591E-010
                    62 -2.112876278506170E-004
                    63 -1.681238186054860E-003
                    64  6.003792408450760E-005
                    65  5.559044003246050E-004
                    66 -4.345207812747420E-006
                    67 -8.408883180942910E-004
                    68  1.015145669097780E-003
                    69  8.699740934477080E-006
                    70 -3.515527738649610E-005
                    71  6.221655160662100E-004
                    72  4.468761970306810E-006
                    73 -5.650851104854780E-004
                    74 -1.321547458603850E-004
                    75  9.252091542957858E-005
                    76  4.917177055226350E-007
                    77 -8.465647941142989E-006
                    78  4.195857620805340E-005
                    79 -9.588257208115250E-008
                    80 -2.440295980250597E-005
                    81 -6.461719330709100E-006
                    82  2.113415755050250E-004
                    83 -3.082841355461020E-005
                    84  5.169499685672430E-006
                    85 -9.333680498961108E-005
                    86  5.936201739923003E-007
                    87 -2.973421509272015E-005
                    88  2.001664397655020E-005
                    89 -1.267411675120530E-006
                    90  3.090648544281494E-007
                    91  1.285950307763820E-005
                    92 -2.112515065481680E-004
                    93 -1.681092723282730E-003
                    94  6.020316302661190E-005
                    95  5.553569473696850E-004
                    96  4.398052813519280E-006
                    97  8.409948089610600E-004
                    98  1.015181091848310E-003
                    99 -8.667190354623881E-006
                   100  3.506887210506660E-005
                   101  6.215304354860810E-004
                   102 -4.473231754321530E-006
                   103  5.644997268054850E-004
                   104 -1.320494844765120E-004
                   105  9.248703930509273E-005
                   106 -4.853940886183640E-007
                   107  8.499882502508221E-006
                   108  4.195985259244420E-005
                   109 -9.547002236468190E-008
                   110 -2.481348514974216E-005
                   111  6.460128812970570E-006
                   112 -2.114541867293870E-004
                   113 -3.089942623120540E-005
                   114  5.159541166605890E-006
                   115 -9.326344326051552E-005
                   116 -5.837115184110964E-007
                   117  2.975853351346304E-005
                   118  2.000954148702620E-005
                   119 -1.264437706479940E-006
                   120 -3.107353660053135E-007
                   121 -1.285671923132250E-005
                   122 -1.477565840796850E-004
                   123  6.869312755779870E-006
                   124  1.108235629285630E-004
                   125  1.284341562114960E-004
                   126 -4.606737268399780E-006
                   127  4.132319550428810E-005
                   128 -7.994097508903710E-004
                   129  4.234260349807920E-007
                   130  2.008310381867440E-005
                   131  3.507530101161640E-004
                   132  3.097246477441510E-006
                   133 -1.712687575174960E-004
                   134  7.079286851249690E-004
                   135 -1.733902478316956E-005
                   136  3.586261254658670E-007
                   137  1.816042838250710E-006
                   138  1.497767887916230E-006
                   139  2.689246682792100E-007
                   140 -1.888248151303228E-004
                   141 -3.327626862706030E-006
                   142  1.694358796377590E-004
                   143  1.272136122058936E-005
                   144 -1.620881292448430E-006
                   145 -3.924036369866019E-005
                   146  1.306243509504834E-007
                   147  1.369793111039729E-006
                   148 -9.667558761536000E-006
                   149 -2.566327912413890E-007
                   150 -1.329700718544292E-007
                   151 -3.632779549067210E-006
                   152 -1.482320195968810E-004
                   153  5.191166727788620E-006
                   154  1.103496017159290E-004
                   155  1.314421339129400E-004
                   156  4.559223889345910E-006
                   157 -4.133738404902200E-005
                   158 -7.993746977750480E-004
                   159 -3.958779118352190E-007
                   160 -2.039803157642970E-005
                   161  3.503912744842530E-004
                   162 -3.062194368605820E-006
                   163  1.718808462320010E-004
                   164  7.080799748613500E-004
                   165 -1.728471022529443E-005
                   166 -3.605269137909750E-007
                   167 -1.825809768033530E-006
                   168  1.446825327338944E-006
                   169  2.680823092439750E-007
                   170 -1.886625475298748E-004
                   171  3.308073439169190E-006
                   172 -1.697166807540870E-004
                   173  1.269423679668548E-005
                   174 -1.628576882097310E-006
                   175 -3.915407206925407E-005
                   176 -1.236255514755254E-007
                   177 -1.354982947526976E-006
                   178 -9.718120352574219E-006
                   179 -2.570778860897430E-007
                   180  1.333236898750296E-007
                   181  3.640708878773179E-006
                   182 -1.218782344574440E-004
                   183 -3.269464396840270E-004
                   184  3.223704268800650E-005
                   185  1.477783750793410E-004
                   186 -4.870562215576310E-009
                   187  8.325699959239250E-008
                   188 -4.077075987101880E-005
                   189  6.941998244656000E-009
                   190 -4.217020133793540E-007
                   191  1.805000655716520E-005
                   192  2.403669417334530E-009
                   193 -3.393021655474420E-008
                   194  5.368800507431630E-005
                   195  1.920105667296274E-005
                   196  3.797268398667780E-010
                   197  2.516339567821390E-008
                   198  9.126555936454821E-006
                   199  1.192119719634490E-007
                   200  5.908097696493343E-005
                   201  6.877229032053370E-010
                   202  2.132162467955100E-007
                   203  4.986448261004620E-005
                   204 -1.292049666224420E-006
                   205 -1.164845490797094E-005
                   206  7.618818178416612E-010
                   207 -6.721864341736511E-009
                   208  3.176339551095420E-006
                   209  3.307831162446830E-007
                   210  3.970830240131413E-010
                   211  2.689133124014115E-008
                   212  3.854964593795720E-003
                   213 -2.325218171602340E-003
                   214  3.528115318512280E-005
                   215  4.664233878725020E-004
                   216  3.802148669771400E-004
                   217  3.854944716560950E-003
                   218 -2.325208824146690E-003
                   219 -3.526143339267890E-005
                   220 -4.663893626122130E-004
                   221  3.802609946046670E-004
                   222 -6.689539898936020E-004
                   223 -1.215092392000770E-004
                   224  2.830924762593170E-007
                   225 -1.708476104855210E-005
                   226 -4.520315040684370E-005
                   227 -6.690230560600580E-004
                   228 -1.211385063961410E-004
                   229 -2.857982746981370E-007
                   230  1.706276887834820E-005
                   231 -4.523116375357930E-005
                   232 -2.338288118500850E-004
                   233 -4.086470060850320E-004
                   234 -3.868970898566870E-007
                   235 -5.700237692340520E-006
                   236  5.885743173782170E-006
                   237 -2.338680210115680E-004
                   238 -4.088078679871060E-004
                   239  3.864703844015910E-007
                   240  5.746885986123280E-006
                   241  5.931739235608640E-006
                   242  6.900807985447540E-005
                   243 -1.301898402080740E-004
                   244  7.983104365203350E-011
                   245 -2.011816652454290E-008
                   246  1.440496359220350E-005
 Sym= __2_a__
 Ene=  0.000000000000000E+000
 Spin= Alpha
 Occup=    2.00000000000000     
                     1 -4.648645452394280E-005
                     2 -2.151524230659430E-004
                     3  2.292178717683690E-003
                     4  1.016562885826390E-004
                     5  1.263868956461460E-003
                     6  8.047758625172110E-008
                     7  1.357273935870520E-007
                     8  3.007670165924480E-003
                     9 -1.532253092473280E-009
                    10 -6.820764852622380E-009
                    11 -5.021472148674440E-005
                    12 -1.371151889000560E-008
                    13 -1.706072487081690E-008
                    14 -5.456593305014630E-004
                    15  4.272268431180392E-005
                    16  3.458466658518770E-010
                    17  6.529364351932500E-009
                    18  6.500035653112740E-005
                    19 -4.535549508126670E-006
                    20 -2.845446200572294E-004
                    21 -4.685634738945320E-009
                    22 -3.761901012423430E-008
                    23 -3.344751174875140E-004
                    24  2.642815138237190E-005
                    25  1.802909652182500E-004
                    26 -1.046115022545293E-008
                    27 -1.813418690025865E-008
                    28 -1.015481269239232E-006
                    29 -5.556091698545560E-006
                    30 -1.226087594015067E-010
                    31  3.405662502363655E-010
                    32   1.00106029701080     
                    33  9.287621557339400E-003
                    34  2.631677517354360E-003
                    35 -7.762848541221460E-003
                    36 -1.104102311968270E-007
                    37 -1.827684703713320E-007
                    38 -4.147049988642040E-003
                    39  2.677116039392830E-008
                    40  4.231811239076290E-008
                    41  1.006288860666420E-003
                    42  1.185082897443700E-007
                    43  1.247224308464550E-007
                    44  4.445971917615710E-003
                    45  4.758649645886901E-004
                    46  3.321511387275520E-008
                    47  1.424724481890790E-008
                    48 -4.309892266792960E-004
                    49  3.339314992023460E-006
                    50  5.805702281466935E-004
                    51  2.735981668206480E-009
                    52  9.095285440157771E-008
                    53  9.382003258225440E-004
                    54 -6.016816773845470E-006
                    55  3.865030559666865E-004
                    56 -1.711582279229201E-008
                    57 -5.641869583301823E-008
                    58 -2.061072786716500E-004
                    59  2.413309210144180E-006
                    60  6.873152453479032E-009
                    61 -9.208209740522592E-009
                    62  7.203663595946980E-003
                    63 -2.057659522423640E-003
                    64 -2.762060277709920E-004
                    65  3.039160724158150E-003
                    66  1.657149705268180E-006
                    67  9.456767371646091E-005
                    68 -8.244467395804280E-006
                    69 -6.640974590608430E-006
                    70  6.006051719509510E-004
                    71  1.790556243012780E-005
                    72  1.091700352285610E-005
                    73 -2.096643153051950E-003
                    74  9.606056535002589E-005
                    75 -1.505159808197219E-005
                    76  1.881373742340900E-007
                    77  1.373549290001550E-005
                    78  2.898600324571540E-005
                    79  3.668153017804500E-007
                    80  7.633770165196614E-004
                    81  5.080181294243140E-006
                    82 -4.227144766536710E-004
                    83 -1.145182447184272E-005
                    84 -3.311076704754950E-006
                    85  7.328261159225108E-005
                    86 -1.080276706092388E-007
                    87  4.607395814018617E-005
                    88 -1.271393941048658E-004
                    89  4.268094431644830E-007
                    90  2.417438852603236E-007
                    91  5.015048703380985E-005
                    92  7.203636892543850E-003
                    93 -2.057743236543010E-003
                    94 -2.762455933358020E-004
                    95  3.039352748434990E-003
                    96 -1.657063160486970E-006
                    97 -9.456866274911430E-005
                    98 -8.257205589501421E-006
                    99  6.641342895917400E-006
                   100 -6.006062986410090E-004
                   101  1.807547210581630E-005
                   102 -1.091281409436350E-005
                   103  2.096766526400130E-003
                   104  9.572880781510580E-005
                   105 -1.503619670314754E-005
                   106 -1.910938262694560E-007
                   107 -1.374104723895100E-005
                   108  2.898559881781880E-005
                   109  3.660674342664570E-007
                   110  7.633671849056848E-004
                   111 -5.009744177200890E-006
                   112  4.228736388874810E-004
                   113 -1.147158342134922E-005
                   114 -3.288946477929440E-006
                   115  7.326087917053245E-005
                   116  1.089729207816183E-007
                   117 -4.610367852596818E-005
                   118 -1.271255416914640E-004
                   119  4.262312553680300E-007
                   120 -2.333582175453711E-007
                   121 -5.016208670177813E-005
                   122 -2.330947111354130E-004
                   123 -7.540043006221070E-004
                   124  2.243913057665050E-004
                   125 -1.097920359077510E-004
                   126 -8.052231335944540E-007
                   127 -1.812595243274330E-005
                   128 -2.556354979093760E-004
                   129  1.432299252585670E-006
                   130 -9.372957794239559E-006
                   131  5.354231814927380E-004
                   132 -2.339557560443890E-006
                   133  3.283868602413260E-004
                   134  7.510671410155650E-004
                   135 -1.393660826738251E-005
                   136 -4.613935634482080E-007
                   137  5.165200826394300E-005
                   138  1.391041747661544E-005
                   139  2.435179331341290E-007
                   140 -2.893054300611922E-004
                   141  1.155022677309120E-006
                   142 -2.183979822797940E-004
                   143 -1.308557534482686E-005
                   144 -8.756395453648340E-007
                   145  1.252396605805245E-006
                   146  3.792804748131342E-007
                   147 -4.119367953474915E-005
                   148 -3.980646708444280E-005
                   149 -4.051246901573290E-007
                   150  1.818680572974341E-007
                   151 -5.541349009857929E-006
                   152 -2.328166177640430E-004
                   153 -7.530817714811170E-004
                   154  2.244434719244290E-004
                   155 -1.107385046428110E-004
                   156  7.913992684089210E-007
                   157  1.809625164837010E-005
                   158 -2.556403183213980E-004
                   159 -1.403934369229070E-006
                   160  9.452850607849060E-006