[Molden Format]
[Atoms] AU
  N     1    7    -4.5082829200   -0.1342819900   -0.4228200100        
  C     2    6    -1.7496705200   -0.0824342700   -0.1838819400        
  C     3    6    -0.3491890900    0.2202010900   -2.3813599000        
  C     4    6    -0.4819141000   -0.3194027500    2.1144844200        
  C     5    6     2.2679837200    0.2851297300   -2.2867536700        
  C     6    6     2.1285900100   -0.2535069600    2.1993448600        
  C     7    6     3.5096699900    0.0491470500   -0.0030301700        
  H     8    1    -5.2360393300   -2.3263659700    0.8673061800        
  H     9    1    -5.1710165100    1.2661961700    0.9629770900        
  H    10    1    -1.3260875200    0.4019365300   -4.1451509600        
  H    11    1    -1.5448115400   -0.5543420500    3.8263524900        
  H    12    1     3.3318141500    0.5199799700   -3.9976458500        
  H    13    1     3.0845146800   -0.4378414600    3.9798216900        
  H    14    1     5.5368142800    0.0998677000    0.0666404700        
[5D]
[7F]
[GTO]
  1  0
   s    12 1.00
  0.114200D+05  0.172695D-04
  0.171200D+04  0.134411D-03
  0.389300D+03  0.694561D-03
  0.110000D+03  0.278531D-02
  0.355700D+02  0.863457D-02
  0.125400D+02  0.199805D-01
  0.464400D+01  0.262908D-01
  0.129300D+01 -0.243845D-01
  0.511800D+00 -0.924934D-01
  0.178700D+00 -0.339683D+00
  0.246240D-01  0.345111D+00
  0.112530D-01  0.752750D+00
   s    10 1.00
  0.114200D+05  0.523000D-03
  0.171200D+04  0.404500D-02
  0.389300D+03  0.207750D-01
  0.110000D+03  0.807269D-01
  0.355700D+02  0.233074D+00
  0.125400D+02  0.433501D+00
  0.464400D+01  0.347472D+00
  0.129300D+01  0.412620D-01
  0.511800D+00 -0.850799D-02
  0.178700D+00  0.238400D-02
   s    10 1.00
  0.114200D+05 -0.115000D-03
  0.171200D+04 -0.895000D-03
  0.389300D+03 -0.462400D-02
  0.110000D+03 -0.185280D-01
  0.355700D+02 -0.573390D-01
  0.125400D+02 -0.132076D+00
  0.464400D+01 -0.172510D+00
  0.129300D+01  0.151814D+00
  0.511800D+00  0.599944D+00
  0.178700D+00  0.387462D+00
   s     1 1.00
  0.129300D+01  0.100000D+01
   s     1 1.00
  0.178700D+00  0.100000D+01
   p     5 1.00
  0.266300D+02  0.146700D-01
  0.594800D+01  0.917640D-01
  0.174200D+01  0.298683D+00
  0.555000D+00  0.498487D+00
  0.172500D+00  0.337023D+00
   p     1 1.00
  0.174200D+01  0.100000D+01
   p     1 1.00
  0.555000D+00  0.100000D+01
   d     1 1.00
  0.165400D+01  0.100000D+01
   d     1 1.00
  0.469000D+00  0.100000D+01
   f     1 1.00
  0.109300D+01  0.100000D+01
  
  2  0
   s    10 1.00
  0.823600D+04  0.531000D-03
  0.123500D+04  0.410800D-02
  0.280800D+03  0.210870D-01
  0.792700D+02  0.818530D-01
  0.255900D+02  0.234817D+00
  0.899700D+01  0.434401D+00
  0.331900D+01  0.346129D+00
  0.905900D+00  0.393780D-01
  0.364300D+00 -0.898300D-02
  0.128500D+00  0.238500D-02
   s    10 1.00
  0.823600D+04 -0.113000D-03
  0.123500D+04 -0.878000D-03
  0.280800D+03 -0.454000D-02
  0.792700D+02 -0.181330D-01
  0.255900D+02 -0.557600D-01
  0.899700D+01 -0.126895D+00
  0.331900D+01 -0.170352D+00
  0.905900D+00  0.140382D+00
  0.364300D+00  0.598684D+00
  0.128500D+00  0.395389D+00
   s     1 1.00
  0.905900D+00  0.100000D+01
   s     1 1.00
  0.364300D+00  0.100000D+01
   p     5 1.00
  0.187100D+02  0.140310D-01
  0.413300D+01  0.868660D-01
  0.120000D+01  0.290216D+00
  0.382700D+00  0.501008D+00
  0.120900D+00  0.343406D+00
   p     1 1.00
  0.382700D+00  0.100000D+01
   p     1 1.00
  0.120900D+00  0.100000D+01
   d     1 1.00
  0.109700D+01  0.100000D+01
   d     1 1.00
  0.318000D+00  0.100000D+01
   f     1 1.00
  0.761000D+00  0.100000D+01
  
  3  0
   s    10 1.00
  0.823600D+04  0.531000D-03
  0.123500D+04  0.410800D-02
  0.280800D+03  0.210870D-01
  0.792700D+02  0.818530D-01
  0.255900D+02  0.234817D+00
  0.899700D+01  0.434401D+00
  0.331900D+01  0.346129D+00
  0.905900D+00  0.393780D-01
  0.364300D+00 -0.898300D-02
  0.128500D+00  0.238500D-02
   s    10 1.00
  0.823600D+04 -0.113000D-03
  0.123500D+04 -0.878000D-03
  0.280800D+03 -0.454000D-02
  0.792700D+02 -0.181330D-01
  0.255900D+02 -0.557600D-01
  0.899700D+01 -0.126895D+00
  0.331900D+01 -0.170352D+00
  0.905900D+00  0.140382D+00
  0.364300D+00  0.598684D+00
  0.128500D+00  0.395389D+00
   s     1 1.00
  0.905900D+00  0.100000D+01
   s     1 1.00
  0.364300D+00  0.100000D+01
   p     5 1.00
  0.187100D+02  0.140310D-01
  0.413300D+01  0.868660D-01
  0.120000D+01  0.290216D+00
  0.382700D+00  0.501008D+00
  0.120900D+00  0.343406D+00
   p     1 1.00
  0.382700D+00  0.100000D+01
   p     1 1.00
  0.120900D+00  0.100000D+01
   d     1 1.00
  0.109700D+01  0.100000D+01
   d     1 1.00
  0.318000D+00  0.100000D+01
   f     1 1.00
  0.761000D+00  0.100000D+01
  
  4  0
   s    10 1.00
  0.823600D+04  0.531000D-03
  0.123500D+04  0.410800D-02
  0.280800D+03  0.210870D-01
  0.792700D+02  0.818530D-01
  0.255900D+02  0.234817D+00
  0.899700D+01  0.434401D+00
  0.331900D+01  0.346129D+00
  0.905900D+00  0.393780D-01
  0.364300D+00 -0.898300D-02
  0.128500D+00  0.238500D-02
   s    10 1.00
  0.823600D+04 -0.113000D-03
  0.123500D+04 -0.878000D-03
  0.280800D+03 -0.454000D-02
  0.792700D+02 -0.181330D-01
  0.255900D+02 -0.557600D-01
  0.899700D+01 -0.126895D+00
  0.331900D+01 -0.170352D+00
  0.905900D+00  0.140382D+00
  0.364300D+00  0.598684D+00
  0.128500D+00  0.395389D+00
   s     1 1.00
  0.905900D+00  0.100000D+01
   s     1 1.00
  0.364300D+00  0.100000D+01
   p     5 1.00
  0.187100D+02  0.140310D-01
  0.413300D+01  0.868660D-01
  0.120000D+01  0.290216D+00
  0.382700D+00  0.501008D+00
  0.120900D+00  0.343406D+00
   p     1 1.00
  0.382700D+00  0.100000D+01
   p     1 1.00
  0.120900D+00  0.100000D+01
   d     1 1.00
  0.109700D+01  0.100000D+01
   d     1 1.00
  0.318000D+00  0.100000D+01
   f     1 1.00
  0.761000D+00  0.100000D+01
  
  5  0
   s    10 1.00
  0.823600D+04  0.531000D-03
  0.123500D+04  0.410800D-02
  0.280800D+03  0.210870D-01
  0.792700D+02  0.818530D-01
  0.255900D+02  0.234817D+00
  0.899700D+01  0.434401D+00
  0.331900D+01  0.346129D+00
  0.905900D+00  0.393780D-01
  0.364300D+00 -0.898300D-02
  0.128500D+00  0.238500D-02
   s    10 1.00
  0.823600D+04 -0.113000D-03
  0.123500D+04 -0.878000D-03
  0.280800D+03 -0.454000D-02
  0.792700D+02 -0.181330D-01
  0.255900D+02 -0.557600D-01
  0.899700D+01 -0.126895D+00
  0.331900D+01 -0.170352D+00
  0.905900D+00  0.140382D+00
  0.364300D+00  0.598684D+00
  0.128500D+00  0.395389D+00
   s     1 1.00
  0.905900D+00  0.100000D+01
   s     1 1.00
  0.364300D+00  0.100000D+01
   p     5 1.00
  0.187100D+02  0.140310D-01
  0.413300D+01  0.868660D-01
  0.120000D+01  0.290216D+00
  0.382700D+00  0.501008D+00
  0.120900D+00  0.343406D+00
   p     1 1.00
  0.382700D+00  0.100000D+01
   p     1 1.00
  0.120900D+00  0.100000D+01
   d     1 1.00
  0.109700D+01  0.100000D+01
   d     1 1.00
  0.318000D+00  0.100000D+01
   f     1 1.00
  0.761000D+00  0.100000D+01
  
  6  0
   s    10 1.00
  0.823600D+04  0.531000D-03
  0.123500D+04  0.410800D-02
  0.280800D+03  0.210870D-01
  0.792700D+02  0.818530D-01
  0.255900D+02  0.234817D+00
  0.899700D+01  0.434401D+00
  0.331900D+01  0.346129D+00
  0.905900D+00  0.393780D-01
  0.364300D+00 -0.898300D-02
  0.128500D+00  0.238500D-02
   s    10 1.00
  0.823600D+04 -0.113000D-03
  0.123500D+04 -0.878000D-03
  0.280800D+03 -0.454000D-02
  0.792700D+02 -0.181330D-01
  0.255900D+02 -0.557600D-01
  0.899700D+01 -0.126895D+00
  0.331900D+01 -0.170352D+00
  0.905900D+00  0.140382D+00
  0.364300D+00  0.598684D+00
  0.128500D+00  0.395389D+00
   s     1 1.00
  0.905900D+00  0.100000D+01
   s     1 1.00
  0.364300D+00  0.100000D+01
   p     5 1.00
  0.187100D+02  0.140310D-01
  0.413300D+01  0.868660D-01
  0.120000D+01  0.290216D+00
  0.382700D+00  0.501008D+00
  0.120900D+00  0.343406D+00
   p     1 1.00
  0.382700D+00  0.100000D+01
   p     1 1.00
  0.120900D+00  0.100000D+01
   d     1 1.00
  0.109700D+01  0.100000D+01
   d     1 1.00
  0.318000D+00  0.100000D+01
   f     1 1.00
  0.761000D+00  0.100000D+01
  
  7  0
   s    10 1.00
  0.823600D+04  0.531000D-03
  0.123500D+04  0.410800D-02
  0.280800D+03  0.210870D-01
  0.792700D+02  0.818530D-01
  0.255900D+02  0.234817D+00
  0.899700D+01  0.434401D+00
  0.331900D+01  0.346129D+00
  0.905900D+00  0.393780D-01
  0.364300D+00 -0.898300D-02
  0.128500D+00  0.238500D-02
   s    10 1.00
  0.823600D+04 -0.113000D-03
  0.123500D+04 -0.878000D-03
  0.280800D+03 -0.454000D-02
  0.792700D+02 -0.181330D-01
  0.255900D+02 -0.557600D-01
  0.899700D+01 -0.126895D+00
  0.331900D+01 -0.170352D+00
  0.905900D+00  0.140382D+00
  0.364300D+00  0.598684D+00
  0.128500D+00  0.395389D+00
   s     1 1.00
  0.905900D+00  0.100000D+01
   s     1 1.00
  0.364300D+00  0.100000D+01
   p     5 1.00
  0.187100D+02  0.140310D-01
  0.413300D+01  0.868660D-01
  0.120000D+01  0.290216D+00
  0.382700D+00  0.501008D+00
  0.120900D+00  0.343406D+00
   p     1 1.00
  0.382700D+00  0.100000D+01
   p     1 1.00
  0.120900D+00  0.100000D+01
   d     1 1.00
  0.109700D+01  0.100000D+01
   d     1 1.00
  0.318000D+00  0.100000D+01
   f     1 1.00
  0.761000D+00  0.100000D+01
  
  8  0
   s     4 1.00
  0.130100D+02  0.196850D-01
  0.196200D+01  0.137977D+00
  0.444600D+00  0.478148D+00
  0.122000D+00  0.501240D+00
   s     1 1.00
  0.122000D+00  0.100000D+01
   p     1 1.00
  0.727000D+00  0.100000D+01
  
  9  0
   s     4 1.00
  0.130100D+02  0.196850D-01
  0.196200D+01  0.137977D+00
  0.444600D+00  0.478148D+00
  0.122000D+00  0.501240D+00
   s     1 1.00
  0.122000D+00  0.100000D+01
   p     1 1.00
  0.727000D+00  0.100000D+01
  
 10  0
   s     4 1.00
  0.130100D+02  0.196850D-01
  0.196200D+01  0.137977D+00
  0.444600D+00  0.478148D+00
  0.122000D+00  0.501240D+00
   s     1 1.00
  0.122000D+00  0.100000D+01
   p     1 1.00
  0.727000D+00  0.100000D+01
  
 11  0
   s     4 1.00
  0.130100D+02  0.196850D-01
  0.196200D+01  0.137977D+00
  0.444600D+00  0.478148D+00
  0.122000D+00  0.501240D+00
   s     1 1.00
  0.122000D+00  0.100000D+01
   p     1 1.00
  0.727000D+00  0.100000D+01
  
 12  0
   s     4 1.00
  0.130100D+02  0.196850D-01
  0.196200D+01  0.137977D+00
  0.444600D+00  0.478148D+00
  0.122000D+00  0.501240D+00
   s     1 1.00
  0.122000D+00  0.100000D+01
   p     1 1.00
  0.727000D+00  0.100000D+01
  
 13  0
   s     4 1.00
  0.130100D+02  0.196850D-01
  0.196200D+01  0.137977D+00
  0.444600D+00  0.478148D+00
  0.122000D+00  0.501240D+00
   s     1 1.00
  0.122000D+00  0.100000D+01
   p     1 1.00
  0.727000D+00  0.100000D+01
  
 14  0
   s     4 1.00
  0.130100D+02  0.196850D-01
  0.196200D+01  0.137977D+00
  0.444600D+00  0.478148D+00
  0.122000D+00  0.501240D+00
   s     1 1.00
  0.122000D+00  0.100000D+01
   p     1 1.00
  0.727000D+00  0.100000D+01
  
[MO]
 Sym= __1_A__
 Ene=   1.00000000000000     
 Spin= Alpha
 Occup=    1.00000000000000     
                     1 -2.127402573186193E-004
                     2  0.998337864792453     
                     3 -2.266471138136755E-002
                     4  1.506734915944899E-003
                     5  6.293277526183755E-003
                     6  1.108806167644258E-002
                     7 -8.046319307624195E-004
                     8  1.664912539540921E-002
                     9 -1.468690997032731E-003
                    10  1.131321687522741E-005
                    11 -1.518827218778399E-003
                    12 -3.680685563963760E-003
                    13 -1.074104276037893E-004
                    14 -5.255490660590405E-003
                    15  9.607789657352997E-005
                    16  1.384213917301552E-005
                    17 -7.314041998419733E-006
                    18  6.943310399246492E-005
                    19  6.019917073929335E-006
                    20  2.929751798050042E-004
                    21  7.328436051782636E-004
                    22 -1.757503823506692E-005
                    23  2.128223704136218E-004
                    24  1.774526012574573E-005
                    25  4.016793164070452E-005
                    26 -5.210750591007449E-005
                    27  1.678152823269116E-005
                    28  3.819723902280300E-005
                    29  2.190891574167831E-005
                    30 -1.018434116891820E-005
                    31  7.200181476039064E-006
                    32 -3.303593050495878E-004
                    33  4.790348098243048E-004
                    34  2.858375887685148E-004
                    35  4.006328009774784E-005
                    36  4.398251383508134E-004
                    37  5.072063459327652E-004
                    38 -1.518377321085927E-003
                    39 -3.603642715202932E-004
                    40 -1.345616129865235E-004
                    41  8.677572903865747E-004
                    42  4.278652576186487E-003
                    43  3.130292868430981E-004
                    44 -2.064267779154964E-003
                    45  1.439915275020962E-006
                    46 -1.949796046126064E-004
                    47 -1.599229471916166E-005
                    48  1.231760634407682E-006
                    49  2.018398886607800E-005
                    50  2.440007292282913E-004
                    51  4.600298592357871E-004
                    52  1.566459485702315E-005
                    53 -1.380415351285460E-004
                    54 -3.639993816163068E-005
                    55  7.905973590843399E-005
                    56 -1.254343777161027E-005
                    57  1.151823870127134E-005
                    58  8.514430230615875E-005
                    59  4.879154110919301E-006
                    60 -5.384448005970332E-005
                    61 -6.553713230683281E-006
                    62 -8.760394675081538E-004
                    63 -7.328287555268877E-004
                    64 -1.570279099048555E-004
                    65  3.203244055139255E-003
                    66 -2.879841650124818E-003
                    67  7.704768320094457E-005
                    68  9.545418977519235E-004
                    69  8.073913519075806E-004
                    70 -3.207584585599896E-005
                    71  6.989942498011016E-004
                    72  1.430091179611100E-003
                    73  2.860782946022411E-004
                    74 -2.197292761660470E-003
                    75  7.176252102639061E-005
                    76 -8.969821543167881E-005
                    77 -1.739897423805214E-005
                    78  4.616735379143522E-005
                    79  1.203428172433873E-005
                    80  3.247278633871374E-004
                    81 -1.937488958817539E-004
                    82 -5.790891010194560E-005
                    83 -4.010128105950498E-006
                    84  1.788035382540498E-005
                    85 -2.729822594139879E-005
                    86 -1.819974789453694E-004
                    87 -1.489674977683269E-005
                    88  1.679255087198980E-005
                    89  1.929642927514085E-005
                    90 -7.250082003164739E-005
                    91  7.108231192771635E-006
                    92  4.300336440405637E-006
                    93 -4.996159075306469E-004
                    94  3.158704170918522E-004
                    95 -1.185578989505623E-003
                    96 -1.611708019826358E-004
                    97 -3.553952356996573E-005
                    98  9.856923469769860E-004
                    99  1.228422631985223E-004
                   100 -7.783095526046699E-005
                   101  3.514248515429974E-004
                   102 -1.864288628631006E-003
                   103 -4.077103788828704E-005
                   104  1.590495839333511E-004
                   105 -3.206556320347401E-005
                   106 -2.977691669631137E-005
                   107 -2.882916967403355E-007
                   108  2.890471778423522E-005
                   109  3.743975298921757E-006
                   110 -1.207848243403380E-004
                   111  1.335470944916714E-004
                   112  5.047541360473696E-005
                   113 -1.449143214897194E-004
                   114 -2.718616351236823E-005
                   115 -2.846466220759002E-005
                   116  3.802063675884767E-005
                   117 -9.053146400118241E-006
                   118 -2.722119294240534E-006
                   119 -8.626005777488741E-006
                   120  5.023986057572984E-006
                   121  3.011075738938729E-007
                   122 -3.253582009226545E-004
                   123 -1.809858573693344E-003
                   124  1.611064821351378E-004
                   125  7.597333141863738E-004
                   126  1.286617427404263E-003
                   127  1.869190182738880E-004
                   128 -1.594809728187874E-004
                   129  5.008828477862817E-004
                   130 -3.127137374330620E-005
                   131  3.578191582190866E-004
                   132  1.745753573856833E-003
                   133 -1.013466746308044E-005
                   134  6.210640850088221E-004
                   135  6.745149064925301E-005
                   136 -2.613722438297981E-005
                   137 -8.550734630613521E-006
                   138 -5.655866739567744E-005
                   139 -5.103668482507539E-006
                   140  2.438006113709393E-004
                   141  1.949286821062060E-004
                   142 -6.748410355347746E-007
                   143 -3.945202058449710E-004
                   144 -5.999145242416968E-005
                   145 -1.869644266683843E-005
                   146 -4.412814133965920E-005
                   147 -8.384337861160803E-006
                   148  6.551327570317348E-006
                   149 -6.316804398874663E-006
                   150 -9.696699885124334E-005
                   151  9.232355270704388E-006
                   152 -1.656429333301394E-004
                   153 -4.576738536061625E-004
                   154 -6.441821066706202E-005
                   155  7.391569155663543E-004
                   156  2.757369669119004E-004
                   157 -7.938249153601102E-005
                   158 -1.448117662697416E-005
                   159 -2.882500106253989E-004
                   160 -1.053991465812616E-005
                   161  6.964791770174908E-005
                   162 -5.164828561248401E-004
                   163 -1.562640532334306E-004
                   164  8.658915290456986E-004
                   165 -9.737757052057367E-006
                   166 -1.087353670690955E-005
                   167  1.314656587457831E-008
                   168  2.074708642901474E-005
                   169 -1.720387121553195E-006
                   170 -4.501666050131553E-005
                   171  5.063772049326203E-005
                   172  1.640217357907589E-005
                   173 -3.595711509604612E-005
                   174 -6.228344931548981E-006
                   175 -5.976994668819965E-006
                   176 -8.839904258704107E-006
                   177 -1.621185361542423E-006
                   178 -7.865673049608293E-006
                   179  2.452682510754233E-006
                   180  2.057234244062197E-006
                   181  1.355257882005311E-006
                   182 -1.477341710408777E-004
                   183 -3.147607774113664E-004
                   184  3.600815654020611E-005
                   185  2.518281916853942E-004
                   186 -1.970061607852319E-004
                   187 -6.930872536611710E-005
                   188 -5.388244043739718E-005
                   189  1.463801106057044E-004
                   190 -4.319338237368249E-005
                   191  3.848482957947596E-004
                   192 -5.177970892462891E-004
                   193 -1.976017168079246E-004
                   194  1.374816571066733E-003
                   195  2.004278841189865E-005
                   196 -5.296742916627002E-006
                   197 -7.208701098599369E-006
                   198 -1.247150039114055E-005
                   199 -3.087088537396364E-007
                   200 -7.559942664058808E-005
                   201 -2.725174999742985E-004
                   202 -4.063132224925028E-007
                   203  2.269840821498966E-005
                   204  3.277776701209862E-005
                   205  1.127626693398281E-006
                   206  6.846261751167268E-006
                   207 -3.313869425946133E-006
                   208  1.605055022263754E-005
                   209  1.622914389270415E-007
                   210 -5.628745074016115E-006
                   211 -1.869515611599895E-006
                   212 -7.511923568195574E-004
                   213  9.264857549494983E-004
                   214  8.935067721232278E-005
                   215 -4.583486302587326E-005
                   216  2.898113778061297E-005
                   217 -2.138726247866359E-003
                   218  1.109882834522972E-003
                   219  1.054450504487356E-004
                   220  1.896973739888619E-005
                   221  9.167602742127877E-005
                   222  8.402240832024455E-004
                   223 -1.354190718392391E-003
                   224 -6.092504812412792E-005
                   225 -8.999749366267931E-006
                   226  1.186843452326640E-004
                   227  7.114743315135120E-004
                   228 -5.912211062091040E-004
                   229 -1.182264553463363E-005
                   230  1.075591968871878E-005
                   231 -1.028320798471022E-004
                   232  7.279552420812350E-004
                   233 -3.898513233887666E-004
                   234 -3.828348158551302E-006
                   235 -3.347644783991775E-006
                   236  4.327647473741149E-005
                   237 -2.098129436352140E-005
                   238 -4.706974078017131E-004
                   239 -8.049264845232002E-006
                   240 -2.324946903421639E-006
                   241  4.035725612499977E-006
                   242 -2.981114047922452E-004
                   243  1.991415251574012E-004
                   244  3.903428520792239E-005
                   245 -8.948342314942587E-007
                   246 -1.007502979862043E-006
 Sym= __2_A__
 Ene=   2.00000000000000     
 Spin= Alpha
 Occup=    1.00000000000000     
                     1 -2.570609820889165E-005
                     2 -9.771508765848074E-005
                     3  3.000800665067512E-004
                     4 -9.141089168624998E-006
                     5  9.877425243988833E-004
                     6  1.666697898172629E-003
                     7 -1.495609174993957E-004
                     8  6.805246933390409E-004
                     9 -1.395076775650617E-004
                    10 -7.004513889013421E-006
                    11 -8.837230627873339E-005
                    12  1.364317477963981E-004
                    13  1.980971969866985E-005
                    14 -1.287087643512933E-004
                    15 -4.947690134496215E-005
                    16  2.918668886007988E-005
                    17  2.937571302311626E-006
                    18  5.500452801940358E-005
                    19 -4.841193664910753E-007
                    20  3.301406600838593E-005
                    21 -4.946788083052639E-005
                    22 -1.875503597219092E-005
                    23  1.121856749604202E-004
                    24  2.409664760339867E-005
                    25 -2.771673558564452E-005
                    26  1.223642411853252E-004
                    27  1.280213191685944E-005
                    28 -6.020259790373482E-005
                    29 -8.445257384839609E-006
                    30  1.015204869385755E-004
                    31 -3.049049685911701E-006
                    32   1.00080077611786     
                    33  8.638364342213652E-003
                    34  2.841529231758070E-003
                    35 -8.446111445718916E-003
                    36 -1.389619868793218E-003
                    37 -1.669499963280791E-004
                    38  2.229395550564981E-005
                    39  5.549088773665741E-004
                    40  1.390690921243910E-004
                    41 -3.529112091509248E-004
                    42  2.523208955142280E-003
                    43  7.022518824174317E-005
                    44  3.582517155658836E-004
                    45  3.110888858364080E-004
                    46 -2.516686069872155E-006
                    47 -1.040356889343508E-004
                    48  3.217555332000722E-004
                    49  1.175281340670179E-005
                    50 -1.017657511116322E-003
                    51 -3.469270538055395E-004
                    52  2.159122465243136E-004
                    53 -1.030745197434839E-004
                    54  4.010568368364524E-005
                    55 -3.010654459509599E-005
                    56  2.545305614474930E-004
                    57  7.943437307565575E-006
                    58 -3.196865214682932E-005
                    59 -3.659185317987670E-005
                    60  7.685513576271397E-005
                    61 -1.362161357758363E-006
                    62  1.795160349206892E-002
                    63 -1.467684262176096E-003
                    64 -2.876499343506042E-004
                    65  2.782791801409719E-003
                    66 -2.963470642225388E-004
                    67 -5.251209361960073E-005
                    68  3.952492961858262E-004
                    69  1.389429876859247E-005
                    70 -4.590636870995209E-005
                    71  3.312171744432774E-004
                    72  1.973047805626657E-004
                    73  2.178702679928740E-004
                    74 -1.768226031847259E-003
                    75  9.491064993378715E-006
                    76  2.113838626905246E-005
                    77  3.410409324057194E-006
                    78 -4.398635255507398E-005
                    79 -4.214174536981304E-006
                    80 -5.387066428925383E-004
                    81 -3.630165155485544E-004
                    82 -2.349071045043147E-006
                    83  8.033387096461226E-004
                    84  9.239900007087731E-005
                    85  3.487619830237646E-005
                    86  1.107919561288627E-004
                    87  1.829149907452608E-005
                    88 -2.891084908957800E-005
                    89 -2.554794505653517E-005
                    90 -2.639322413764552E-005
                    91  6.331969324592364E-006
                    92  1.902686465907028E-002
                    93 -1.763070484229630E-003
                    94 -3.367202967090787E-004
                    95  3.388806451426635E-003
                    96 -2.062205405740244E-004
                    97  2.070262337618760E-005
                    98 -2.865664550845788E-004
                    99 -1.161996640299227E-004
                   100  8.831089776120664E-005
                   101 -8.238371023068793E-004
                   102  2.987274951190666E-004
                   103 -1.739224657763967E-004
                   104  1.498045952131291E-003
                   105  4.351416484449573E-006
                   106 -2.903550168295585E-007
                   107  1.967650211247136E-006
                   108 -2.047621573516934E-005
                   109 -6.720635665350434E-007
                   110 -1.421419965371598E-004
                   111  5.088707590574362E-004
                   112 -2.000052543984853E-005
                   113  6.089701949068228E-004
                   114 -2.286594755175787E-005
                   115 -4.252407490278178E-005
                   116  8.657740773296514E-005
                   117 -1.596415857982317E-005
                   118  1.765840142936348E-005
                   119 -2.136605666513656E-005
                   120 -2.866562329430599E-005
                   121 -8.728563747400004E-007
                   122  1.747425209842939E-005
                   123 -7.030921261045016E-004
                   124  2.420338589625363E-004
                   125 -4.012322630055274E-004
                   126 -1.094727659129477E-004
                   127  3.528933394477813E-006
                   128 -4.988451850397562E-005
                   129  6.287378768037352E-004
                   130  1.349832898894781E-005
                   131  4.884923242438944E-005
                   132  3.421697657289389E-004
                   133 -3.709420204557102E-005
                   134  4.076821789680712E-004
                   135  1.688075384171912E-006
                   136  3.579716995842842E-005
                   137  4.988017171123996E-006
                   138 -3.860794921501436E-005
                   139 -6.815844440869592E-006
                   140  1.836878041762926E-004
                   141 -2.742498515266467E-004
                   142 -1.792942733611002E-005
                   143 -2.215098890636948E-004
                   144  1.924254780374227E-005
                   145 -1.032405867597764E-005
                   146  1.344389645396204E-005
                   147 -1.947478979192010E-006
                   148 -3.634366223239390E-006
                   149 -5.956969571041524E-006
                   150 -2.026295293104454E-005
                   151  2.653244740691413E-006
                   152  8.675039263538039E-005
                   153 -7.383125406925182E-004
                   154  2.277271563057031E-004
                   155 -1.254334915659902E-004
                   156 -1.394434105829132E-004
                   157 -1.737029696232504E-005
                   158  2.874760770973036E-005
                   159  4.828334912140540E-004
                   160  1.400201188149329E-005