[Molden Format]
[Atoms] AU
  N     1    7    -4.4891757400    0.0982420000   -0.3006910200        
  C     2    6    -1.7536193000   -0.0033299200   -0.1352871200        
  C     3    6    -0.3639952300    0.2134853400   -2.3567540000        
  C     4    6    -0.4688414300   -0.1898998400    2.1542229600        
  C     5    6     2.2496183100    0.1959744100   -2.2874331400        
  C     6    6     2.1477627400   -0.1632116500    2.2126303100        
  C     7    6     3.5138700900    0.0194703600   -0.0055103300        
  H     8    1    -5.1451082500   -1.7437486300   -0.4208542400        
  H     9    1    -5.1139405500    0.6643817200    1.4500863800        
  H    10    1    -1.3457225800    0.4109688500   -4.1173666400        
  H    11    1    -1.5147427000   -0.3727502600    3.8827049800        
  H    12    1     3.3007865400    0.3545706500   -4.0153811600        
  H    13    1     3.1132813500   -0.3025595400    3.9920558600        
  H    14    1     5.5420717300    0.0283588000    0.0417398800        
[5D]
[7F]
[GTO]
  1  0
   s    12 1.00
  0.114200D+05  0.172695D-04
  0.171200D+04  0.134411D-03
  0.389300D+03  0.694561D-03
  0.110000D+03  0.278531D-02
  0.355700D+02  0.863457D-02
  0.125400D+02  0.199805D-01
  0.464400D+01  0.262908D-01
  0.129300D+01 -0.243845D-01
  0.511800D+00 -0.924934D-01
  0.178700D+00 -0.339683D+00
  0.246240D-01  0.345111D+00
  0.112530D-01  0.752750D+00
   s    10 1.00
  0.114200D+05  0.523000D-03
  0.171200D+04  0.404500D-02
  0.389300D+03  0.207750D-01
  0.110000D+03  0.807269D-01
  0.355700D+02  0.233074D+00
  0.125400D+02  0.433501D+00
  0.464400D+01  0.347472D+00
  0.129300D+01  0.412620D-01
  0.511800D+00 -0.850799D-02
  0.178700D+00  0.238400D-02
   s    10 1.00
  0.114200D+05 -0.115000D-03
  0.171200D+04 -0.895000D-03
  0.389300D+03 -0.462400D-02
  0.110000D+03 -0.185280D-01
  0.355700D+02 -0.573390D-01
  0.125400D+02 -0.132076D+00
  0.464400D+01 -0.172510D+00
  0.129300D+01  0.151814D+00
  0.511800D+00  0.599944D+00
  0.178700D+00  0.387462D+00
   s     1 1.00
  0.129300D+01  0.100000D+01
   s     1 1.00
  0.178700D+00  0.100000D+01
   p     5 1.00
  0.266300D+02  0.146700D-01
  0.594800D+01  0.917640D-01
  0.174200D+01  0.298683D+00
  0.555000D+00  0.498487D+00
  0.172500D+00  0.337023D+00
   p     1 1.00
  0.174200D+01  0.100000D+01
   p     1 1.00
  0.555000D+00  0.100000D+01
   d     1 1.00
  0.165400D+01  0.100000D+01
   d     1 1.00
  0.469000D+00  0.100000D+01
   f     1 1.00
  0.109300D+01  0.100000D+01
  
  2  0
   s    10 1.00
  0.823600D+04  0.531000D-03
  0.123500D+04  0.410800D-02
  0.280800D+03  0.210870D-01
  0.792700D+02  0.818530D-01
  0.255900D+02  0.234817D+00
  0.899700D+01  0.434401D+00
  0.331900D+01  0.346129D+00
  0.905900D+00  0.393780D-01
  0.364300D+00 -0.898300D-02
  0.128500D+00  0.238500D-02
   s    10 1.00
  0.823600D+04 -0.113000D-03
  0.123500D+04 -0.878000D-03
  0.280800D+03 -0.454000D-02
  0.792700D+02 -0.181330D-01
  0.255900D+02 -0.557600D-01
  0.899700D+01 -0.126895D+00
  0.331900D+01 -0.170352D+00
  0.905900D+00  0.140382D+00
  0.364300D+00  0.598684D+00
  0.128500D+00  0.395389D+00
   s     1 1.00
  0.905900D+00  0.100000D+01
   s     1 1.00
  0.364300D+00  0.100000D+01
   p     5 1.00
  0.187100D+02  0.140310D-01
  0.413300D+01  0.868660D-01
  0.120000D+01  0.290216D+00
  0.382700D+00  0.501008D+00
  0.120900D+00  0.343406D+00
   p     1 1.00
  0.382700D+00  0.100000D+01
   p     1 1.00
  0.120900D+00  0.100000D+01
   d     1 1.00
  0.109700D+01  0.100000D+01
   d     1 1.00
  0.318000D+00  0.100000D+01
   f     1 1.00
  0.761000D+00  0.100000D+01
  
  3  0
   s    10 1.00
  0.823600D+04  0.531000D-03
  0.123500D+04  0.410800D-02
  0.280800D+03  0.210870D-01
  0.792700D+02  0.818530D-01
  0.255900D+02  0.234817D+00
  0.899700D+01  0.434401D+00
  0.331900D+01  0.346129D+00
  0.905900D+00  0.393780D-01
  0.364300D+00 -0.898300D-02
  0.128500D+00  0.238500D-02
   s    10 1.00
  0.823600D+04 -0.113000D-03
  0.123500D+04 -0.878000D-03
  0.280800D+03 -0.454000D-02
  0.792700D+02 -0.181330D-01
  0.255900D+02 -0.557600D-01
  0.899700D+01 -0.126895D+00
  0.331900D+01 -0.170352D+00
  0.905900D+00  0.140382D+00
  0.364300D+00  0.598684D+00
  0.128500D+00  0.395389D+00
   s     1 1.00
  0.905900D+00  0.100000D+01
   s     1 1.00
  0.364300D+00  0.100000D+01
   p     5 1.00
  0.187100D+02  0.140310D-01
  0.413300D+01  0.868660D-01
  0.120000D+01  0.290216D+00
  0.382700D+00  0.501008D+00
  0.120900D+00  0.343406D+00
   p     1 1.00
  0.382700D+00  0.100000D+01
   p     1 1.00
  0.120900D+00  0.100000D+01
   d     1 1.00
  0.109700D+01  0.100000D+01
   d     1 1.00
  0.318000D+00  0.100000D+01
   f     1 1.00
  0.761000D+00  0.100000D+01
  
  4  0
   s    10 1.00
  0.823600D+04  0.531000D-03
  0.123500D+04  0.410800D-02
  0.280800D+03  0.210870D-01
  0.792700D+02  0.818530D-01
  0.255900D+02  0.234817D+00
  0.899700D+01  0.434401D+00
  0.331900D+01  0.346129D+00
  0.905900D+00  0.393780D-01
  0.364300D+00 -0.898300D-02
  0.128500D+00  0.238500D-02
   s    10 1.00
  0.823600D+04 -0.113000D-03
  0.123500D+04 -0.878000D-03
  0.280800D+03 -0.454000D-02
  0.792700D+02 -0.181330D-01
  0.255900D+02 -0.557600D-01
  0.899700D+01 -0.126895D+00
  0.331900D+01 -0.170352D+00
  0.905900D+00  0.140382D+00
  0.364300D+00  0.598684D+00
  0.128500D+00  0.395389D+00
   s     1 1.00
  0.905900D+00  0.100000D+01
   s     1 1.00
  0.364300D+00  0.100000D+01
   p     5 1.00
  0.187100D+02  0.140310D-01
  0.413300D+01  0.868660D-01
  0.120000D+01  0.290216D+00
  0.382700D+00  0.501008D+00
  0.120900D+00  0.343406D+00
   p     1 1.00
  0.382700D+00  0.100000D+01
   p     1 1.00
  0.120900D+00  0.100000D+01
   d     1 1.00
  0.109700D+01  0.100000D+01
   d     1 1.00
  0.318000D+00  0.100000D+01
   f     1 1.00
  0.761000D+00  0.100000D+01
  
  5  0
   s    10 1.00
  0.823600D+04  0.531000D-03
  0.123500D+04  0.410800D-02
  0.280800D+03  0.210870D-01
  0.792700D+02  0.818530D-01
  0.255900D+02  0.234817D+00
  0.899700D+01  0.434401D+00
  0.331900D+01  0.346129D+00
  0.905900D+00  0.393780D-01
  0.364300D+00 -0.898300D-02
  0.128500D+00  0.238500D-02
   s    10 1.00
  0.823600D+04 -0.113000D-03
  0.123500D+04 -0.878000D-03
  0.280800D+03 -0.454000D-02
  0.792700D+02 -0.181330D-01
  0.255900D+02 -0.557600D-01
  0.899700D+01 -0.126895D+00
  0.331900D+01 -0.170352D+00
  0.905900D+00  0.140382D+00
  0.364300D+00  0.598684D+00
  0.128500D+00  0.395389D+00
   s     1 1.00
  0.905900D+00  0.100000D+01
   s     1 1.00
  0.364300D+00  0.100000D+01
   p     5 1.00
  0.187100D+02  0.140310D-01
  0.413300D+01  0.868660D-01
  0.120000D+01  0.290216D+00
  0.382700D+00  0.501008D+00
  0.120900D+00  0.343406D+00
   p     1 1.00
  0.382700D+00  0.100000D+01
   p     1 1.00
  0.120900D+00  0.100000D+01
   d     1 1.00
  0.109700D+01  0.100000D+01
   d     1 1.00
  0.318000D+00  0.100000D+01
   f     1 1.00
  0.761000D+00  0.100000D+01
  
  6  0
   s    10 1.00
  0.823600D+04  0.531000D-03
  0.123500D+04  0.410800D-02
  0.280800D+03  0.210870D-01
  0.792700D+02  0.818530D-01
  0.255900D+02  0.234817D+00
  0.899700D+01  0.434401D+00
  0.331900D+01  0.346129D+00
  0.905900D+00  0.393780D-01
  0.364300D+00 -0.898300D-02
  0.128500D+00  0.238500D-02
   s    10 1.00
  0.823600D+04 -0.113000D-03
  0.123500D+04 -0.878000D-03
  0.280800D+03 -0.454000D-02
  0.792700D+02 -0.181330D-01
  0.255900D+02 -0.557600D-01
  0.899700D+01 -0.126895D+00
  0.331900D+01 -0.170352D+00
  0.905900D+00  0.140382D+00
  0.364300D+00  0.598684D+00
  0.128500D+00  0.395389D+00
   s     1 1.00
  0.905900D+00  0.100000D+01
   s     1 1.00
  0.364300D+00  0.100000D+01
   p     5 1.00
  0.187100D+02  0.140310D-01
  0.413300D+01  0.868660D-01
  0.120000D+01  0.290216D+00
  0.382700D+00  0.501008D+00
  0.120900D+00  0.343406D+00
   p     1 1.00
  0.382700D+00  0.100000D+01
   p     1 1.00
  0.120900D+00  0.100000D+01
   d     1 1.00
  0.109700D+01  0.100000D+01
   d     1 1.00
  0.318000D+00  0.100000D+01
   f     1 1.00
  0.761000D+00  0.100000D+01
  
  7  0
   s    10 1.00
  0.823600D+04  0.531000D-03
  0.123500D+04  0.410800D-02
  0.280800D+03  0.210870D-01
  0.792700D+02  0.818530D-01
  0.255900D+02  0.234817D+00
  0.899700D+01  0.434401D+00
  0.331900D+01  0.346129D+00
  0.905900D+00  0.393780D-01
  0.364300D+00 -0.898300D-02
  0.128500D+00  0.238500D-02
   s    10 1.00
  0.823600D+04 -0.113000D-03
  0.123500D+04 -0.878000D-03
  0.280800D+03 -0.454000D-02
  0.792700D+02 -0.181330D-01
  0.255900D+02 -0.557600D-01
  0.899700D+01 -0.126895D+00
  0.331900D+01 -0.170352D+00
  0.905900D+00  0.140382D+00
  0.364300D+00  0.598684D+00
  0.128500D+00  0.395389D+00
   s     1 1.00
  0.905900D+00  0.100000D+01
   s     1 1.00
  0.364300D+00  0.100000D+01
   p     5 1.00
  0.187100D+02  0.140310D-01
  0.413300D+01  0.868660D-01
  0.120000D+01  0.290216D+00
  0.382700D+00  0.501008D+00
  0.120900D+00  0.343406D+00
   p     1 1.00
  0.382700D+00  0.100000D+01
   p     1 1.00
  0.120900D+00  0.100000D+01
   d     1 1.00
  0.109700D+01  0.100000D+01
   d     1 1.00
  0.318000D+00  0.100000D+01
   f     1 1.00
  0.761000D+00  0.100000D+01
  
  8  0
   s     4 1.00
  0.130100D+02  0.196850D-01
  0.196200D+01  0.137977D+00
  0.444600D+00  0.478148D+00
  0.122000D+00  0.501240D+00
   s     1 1.00
  0.122000D+00  0.100000D+01
   p     1 1.00
  0.727000D+00  0.100000D+01
  
  9  0
   s     4 1.00
  0.130100D+02  0.196850D-01
  0.196200D+01  0.137977D+00
  0.444600D+00  0.478148D+00
  0.122000D+00  0.501240D+00
   s     1 1.00
  0.122000D+00  0.100000D+01
   p     1 1.00
  0.727000D+00  0.100000D+01
  
 10  0
   s     4 1.00
  0.130100D+02  0.196850D-01
  0.196200D+01  0.137977D+00
  0.444600D+00  0.478148D+00
  0.122000D+00  0.501240D+00
   s     1 1.00
  0.122000D+00  0.100000D+01
   p     1 1.00
  0.727000D+00  0.100000D+01
  
 11  0
   s     4 1.00
  0.130100D+02  0.196850D-01
  0.196200D+01  0.137977D+00
  0.444600D+00  0.478148D+00
  0.122000D+00  0.501240D+00
   s     1 1.00
  0.122000D+00  0.100000D+01
   p     1 1.00
  0.727000D+00  0.100000D+01
  
 12  0
   s     4 1.00
  0.130100D+02  0.196850D-01
  0.196200D+01  0.137977D+00
  0.444600D+00  0.478148D+00
  0.122000D+00  0.501240D+00
   s     1 1.00
  0.122000D+00  0.100000D+01
   p     1 1.00
  0.727000D+00  0.100000D+01
  
 13  0
   s     4 1.00
  0.130100D+02  0.196850D-01
  0.196200D+01  0.137977D+00
  0.444600D+00  0.478148D+00
  0.122000D+00  0.501240D+00
   s     1 1.00
  0.122000D+00  0.100000D+01
   p     1 1.00
  0.727000D+00  0.100000D+01
  
 14  0
   s     4 1.00
  0.130100D+02  0.196850D-01
  0.196200D+01  0.137977D+00
  0.444600D+00  0.478148D+00
  0.122000D+00  0.501240D+00
   s     1 1.00
  0.122000D+00  0.100000D+01
   p     1 1.00
  0.727000D+00  0.100000D+01
  
[MO]
 Sym= __1_a__
 Ene=  0.000000000000000E+000
 Spin= Alpha
 Occup=    2.00000000000000     
                     1  2.015121653585160E-004
                     2  0.998122906520964     
                     3 -3.124729557439890E-003
                     4  1.959388861639720E-003
                     5  7.024711702452360E-003
                     6  6.660361858165040E-003
                     7 -3.793665462996730E-003
                     8  6.748470811110250E-003
                     9 -1.041500360484900E-003
                    10  3.362849266436700E-004
                    11 -7.979410874192460E-004
                    12 -2.170463375159830E-003
                    13  2.318288891971650E-003
                    14 -3.553447201128070E-003
                    15  3.070248422956719E-005
                    16 -6.980332814815350E-005
                    17 -3.565400313212490E-005
                    18  3.398815882537340E-005
                    19  1.896525627200990E-005
                    20 -9.352132335277242E-005
                    21  5.817650186587680E-004
                    22 -2.384273091935760E-004
                    23  2.155427172076720E-004
                    24 -3.192773288292680E-004
                    25 -9.074562760213346E-007
                    26 -9.379204591161907E-005
                    27  6.002045888221966E-005
                    28  3.357618923191060E-005
                    29 -2.291705818570940E-006
                    30 -8.850434068026914E-005
                    31 -8.024579354639781E-006
                    32 -3.192982754231860E-004
                    33  3.648192165535730E-004
                    34  2.681046839524110E-004
                    35 -3.654967792776320E-005
                    36 -2.565300111416550E-003
                    37 -5.030639281060630E-004
                    38 -3.459001746926720E-004
                    39  1.831084947792530E-004
                    40 -1.132088588112430E-004
                    41  1.006814088154550E-003
                    42  4.679659486030420E-003
                    43  6.717657903608240E-004
                    44 -3.558668279227540E-003
                    45 -1.489838479898025E-004
                    46  1.307905404716180E-005
                    47  1.469473910270160E-005
                    48  1.526742122761930E-004
                    49  3.391861216427660E-005
                    50  5.590365616477407E-004
                    51  7.893194981647800E-004
                    52 -9.972567546901460E-005
                    53 -1.867021998081500E-004
                    54 -2.854677991775250E-004
                    55  4.747096297284096E-005
                    56 -3.615244593625136E-005
                    57 -5.749920345173046E-006
                    58  5.265943287016960E-005
                    59 -8.748208101921310E-007
                    60 -3.672835470850074E-005
                    61  5.844893049762266E-006
                    62 -7.767788712011880E-004
                    63 -2.698851456025950E-003
                    64 -7.884249562676530E-005
                    65  2.800732831810950E-003
                    66 -7.013853106620720E-005
                    67 -2.462257016357470E-004
                    68 -3.893104131087300E-004
                    69  8.685502386150460E-004
                    70 -2.534610406882140E-005
                    71  7.015495642242460E-004
                    72  1.745181724218260E-003
                    73  4.443282857508650E-005
                    74 -1.531916128069150E-003
                    75 -4.877501441229777E-005
                    76 -4.486844250068390E-005
                    77  1.823181495098260E-006
                    78  7.874921557865700E-005
                    79  5.567198319618300E-006
                    80  4.888942106428273E-004
                    81  1.629640724349460E-004
                    82 -9.205480124385081E-005
                    83 -6.665110977746680E-005
                    84  2.517039929986290E-006
                    85 -2.527280618880802E-005
                    86 -1.494607555841696E-004
                    87  4.826367887687142E-006
                    88  1.120411062339624E-005
                    89  2.024166844335330E-005
                    90 -7.373676146939317E-005
                    91 -8.656473396875323E-006
                    92  2.670556435597320E-005
                    93 -2.336312587350430E-004
                    94  3.144967172754760E-004
                    95 -1.241374325726920E-003
                    96  3.338339542840760E-004
                    97 -2.606946022773660E-004
                    98  2.315947458241980E-004
                    99  2.173370588699770E-004
                   100  1.353613488866090E-005
                   101  5.157558773116490E-004
                   102 -2.453899809783020E-003
                   103 -1.217174748433670E-004
                   104  1.858514231768050E-004
                   105 -5.117339516137542E-005
                   106 -7.809458712359690E-006
                   107  3.648583538016080E-006
                   108  3.034819866510880E-005
                   109 -4.357677485064030E-007
                   110 -1.264587372687691E-004
                   111 -2.063234841048800E-004
                   112  3.127311603749470E-005
                   113 -2.415789550049860E-004
                   114  3.646141867628540E-005
                   115 -2.718148934916001E-005
                   116  5.173782517930844E-005
                   117  7.589889760668713E-006
                   118  1.661939909918288E-005
                   119 -1.193501145558100E-005
                   120 -5.975439893083500E-006
                   121 -6.675514347177046E-006
                   122 -3.250422657316030E-004
                   123 -9.480315516598000E-004
                   124  1.170352237666600E-004
                   125  9.492746597602870E-004
                   126 -2.665534710398470E-004
                   127 -5.092919758355090E-005
                   128 -4.799430098871980E-005
                   129  5.698163758522510E-004
                   130 -2.690422957476760E-005
                   131  2.985303983059070E-004
                   132  2.899381448342730E-003
                   133  2.882758905724610E-005
                   134  4.806080704845530E-004
                   135  3.654310338044734E-005
                   136 -2.527558354175120E-006
                   137 -4.571016605129050E-006
                   138 -2.058285985815320E-005
                   139  8.538212788023919E-006
                   140  2.594272143538773E-004
                   141  3.814897467476820E-004
                   142  1.885021684024220E-006
                   143 -4.015924208147920E-004
                   144 -2.927355077087130E-005
                   145 -3.809239761266636E-005
                   146 -2.646287534662563E-005
                   147 -4.706028784536366E-006
                   148 -1.432995485164832E-005
                   149 -5.089181033627060E-006
                   150 -8.866021440212543E-005
                   151 -4.435401649873206E-007
                   152 -1.426803802789390E-004
                   153 -3.044454800282480E-004
                   154 -5.139303853488560E-005
                   155  5.532760224708260E-004
                   156 -2.332835638713730E-004
                   157 -2.948665998003980E-005
                   158 -5.597933637590230E-005
                   159 -2.502295449719070E-004
                   160 -3.234744641396730E-005
                   161  2.580687356657400E-004
                   162 -1.223469710400720E-003
                   163 -3.905205514167550E-005
                   164  9.251698601968330E-004
                   165 -2.269576033528675E-005
                   166  9.724628121157360E-006
                   167  1.622356688938600E-006
                   168  2.131110066610380E-005
                   169  5.759546346502070E-006
                   170 -8.846573245046641E-005
                   171  5.187757567511920E-006
                   172  1.372103760877860E-005
                   173  5.934911797869020E-005
                   174  7.539789458366420E-006
                   175 -1.403654212997426E-005
                   176 -2.269266317310543E-006
                   177 -8.996163619224767E-007
                   178 -9.037184272737601E-006
                   179 -9.950650173619191E-008
                   180  5.439594101293065E-006
                   181 -1.918553066626748E-006
                   182 -1.608189314742930E-004
                   183 -4.986448570448670E-004
                   184  3.985387210947150E-005
                   185  2.108941911226850E-004
                   186 -2.246556970918040E-005
                   187  3.961861946232500E-005
                   188 -9.020890307081539E-005
                   189  9.341940823938900E-005
                   190 -2.301769266539690E-005
                   191  4.271591723951270E-004
                   192 -4.573300157997550E-004
                   193 -1.917699918140520E-004
                   194  2.260104006976780E-003
                   195 -4.140546550615473E-006
                   196  5.559314969383050E-006
                   197  5.616514770289060E-007
                   198  2.723505767067280E-007
                   199  1.007087600430280E-007
                   200 -1.333169991967470E-004
                   201 -3.463477776582800E-004
                   202  1.608258318959260E-005
                   203  6.488702359223800E-005
                   204  3.039283065216190E-005
                   205  3.362071794748107E-006
                   206  4.377336886138014E-006
                   207 -1.316917265307872E-006
                   208  2.564068974190180E-005
                   209 -2.111954221653910E-006
                   210 -4.320834211210483E-006
                   211 -3.040793551187887E-006
                   212  3.482132199458050E-004
                   213 -1.002781114859690E-003
                   214  1.076442004339260E-004
                   215  2.852415483780700E-004
                   216 -3.030021062757620E-005
                   217  1.366971868180060E-003
                   218 -1.419466996614050E-003
                   219  1.456746043228320E-004
                   220 -3.581863178871450E-005
                   221 -3.690747047006300E-004
                   222 -3.874936307181630E-004
                   223 -2.345390596114870E-004
                   224 -1.041041518472200E-004
                   225 -1.907198900995930E-006
                   226  4.896703299468090E-005
                   227 -1.935903696960710E-004
                   228 -5.932355608107520E-004
                   229 -2.373652332171850E-005
                   230  1.114582316985930E-005
                   231 -5.483234849533280E-005
                   232  8.983825247824010E-005
                   233 -7.385542866969290E-004
                   234 -2.329220397468640E-006
                   235 -1.505857983964040E-006
                   236  8.345023989630880E-006
                   237 -1.169989902328800E-004
                   238 -2.215929838800860E-004
                   239  2.004029221453050E-005
                   240 -3.246349353614260E-006
                   241  2.409171772455490E-005
                   242 -3.543417329754460E-005
                   243  1.277681778461450E-004
                   244  3.112025093377040E-005
                   245  2.453962546945500E-006
                   246  1.827161648432040E-006
 Sym= __2_a__
 Ene=  0.000000000000000E+000
 Spin= Alpha
 Occup=    2.00000000000000     
                     1  1.583608931197880E-006
                     2 -9.422737949026180E-005
                     3  1.168007771726990E-003
                     4 -2.163833857214450E-005
                     5  1.188911946136150E-003
                     6  1.409969564832220E-003
                     7 -1.492705134689050E-004
                     8 -8.098494718587740E-005
                     9 -1.564931004052740E-004
                    10  1.048200921833120E-004
                    11 -5.148963648114890E-005
                    12  1.914119625821800E-004
                    13  1.511261428524110E-004
                    14 -1.322414895497250E-005
                    15 -5.633057856579966E-005
                    16  1.929901256585070E-005
                    17 -4.970274030793400E-006
                    18  4.732908929527960E-005
                    19 -4.348453056123570E-007
                    20  7.662199318781903E-005
                    21 -6.609531593545041E-005
                    22  2.240462126851040E-005
                    23  1.214233814344480E-004
                    24 -5.739213996037040E-005
                    25 -5.219854101253451E-005
                    26  1.253212304605145E-004
                    27  1.712998689580714E-005
                    28 -3.209600590386780E-005
                    29 -9.957387246122760E-006
                    30  1.209565058279984E-004
                    31  2.934690575368072E-005
                    32   1.00087141342748     
                    33  8.603194499862930E-003
                    34  2.852297286800750E-003
                    35 -8.412812773448439E-003
                    36 -1.804369773972690E-003
                    37  2.751793837437170E-004
                    38  1.077498658717690E-004
                    39  9.983057876602390E-004
                    40 -1.150254057922950E-004
                    41 -2.607674809675770E-004
                    42  2.759225598375730E-003
                    43 -1.071483408994840E-004
                    44 -2.329377253259910E-005
                    45  3.113838305173828E-004
                    46  1.193732264126260E-005
                    47 -6.337847367547990E-005
                    48  3.439427974532980E-004
                    49 -4.171784528192440E-007
                    50 -9.789208663460434E-004
                    51 -2.532859575646540E-004
                    52  1.653303838080980E-004
                    53 -1.576742925462920E-004
                    54  1.477145623257900E-005
                    55 -1.596882446373708E-005
                    56  2.677842756579568E-004
                    57 -8.632789365874094E-006
                    58 -2.577235411468800E-005
                    59 -2.394419889320130E-005
                    60  6.764641324134928E-005
                    61  8.847417326359236E-006
                    62  1.537027614659020E-002
                    63 -1.649729902282870E-003
                    64 -2.870876130903700E-004
                    65  2.866567676342210E-003
                    66 -2.247492067014230E-004
                    67 -4.788000143115390E-006
                    68  3.638229633880870E-004
                    69  3.294277617352730E-005
                    70 -3.394960119739660E-005
                    71  3.451355286714430E-004
                    72  3.798518006245550E-004
                    73  1.908576295481170E-004
                    74 -1.753682374652840E-003
                    75  2.124195793245337E-006
                    76  2.512898036672480E-005
                    77  3.491329484249990E-006
                    78 -4.312975080909760E-005
                    79 -2.394491652347650E-006
                    80 -4.883392575210980E-004
                    81 -3.860823873707880E-004
                    82  2.363621929065080E-005
                    83  7.976090953744980E-004
                    84  2.749407497567210E-005
                    85  3.850973854565044E-005
                    86  1.052641574210842E-004
                    87  1.714058283585834E-005
                    88 -2.348318853070860E-005
                    89 -2.192931173713910E-005
                    90 -2.507087045068730E-005
                    91  2.731826260794735E-006
                    92  1.751164451655850E-002
                    93 -1.657628032085170E-003
                    94 -3.366980505874100E-004
                    95  3.293629147562430E-003
                    96 -2.545206635077520E-004
                    97  5.380255257176800E-005
                    98 -3.510333308398480E-004
                    99 -7.723702854726190E-005
                   100  6.793291577863190E-005
                   101 -7.029862253977420E-004
                   102  1.865011284164990E-004
                   103 -1.171843255251510E-004
                   104  1.603514803913050E-003
                   105  7.348026886909485E-006
                   106 -8.386187488346550E-006
                   107  1.435656897690790E-006
                   108 -2.875377604199720E-005
                   109 -9.525412173027849E-007
                   110 -2.545315045717089E-004
                   111  4.885527630561980E-004
                   112 -3.583894960448120E-005
                   113  6.519753824271260E-004
                   114 -4.152393723763080E-005
                   115 -4.897021601798795E-005
                   116  9.074757741130549E-005
                   117 -8.915556976242561E-006
                   118  2.034137479098420E-005
                   119 -9.969480290218499E-006
                   120 -3.132294450245882E-005
                   121 -1.578167258064377E-007
                   122 -9.124432348714260E-005
                   123 -7.611559048599481E-004
                   124  2.419337476987550E-004
                   125 -3.211590642782800E-004
                   126 -1.318044835530780E-004
                   127  7.962083009190250E-006
                   128 -5.423957751599700E-005
                   129  6.155656350397380E-004
                   130 -9.964867440306100E-006
                   131  7.112266222612221E-005
                   132  5.570268423662400E-004
                   133 -4.511314598665520E-005
                   134  4.107480454863590E-004
                   135  1.080508000603342E-006
                   136  3.809899694667480E-005
                   137  2.694434462835490E-006
                   138 -3.654979925265580E-005
                   139 -4.201202775380920E-006
                   140  1.940182643983324E-004
                   141 -2.724142461208510E-004
                   142 -8.427320308646059E-006
                   143 -2.372777266180360E-004
                   144  2.544094822335960E-005
                   145 -1.301612351563051E-005
                   146  1.310585457156974E-005
                   147 -2.388100841392540E-006
                   148 -6.070263626018480E-006
                   149 -3.676427215016400E-006
                   150 -2.069644862762401E-005
                   151  1.240837344996839E-006
                   152 -3.529567212449020E-005
                   153 -7.705410336437560E-004
                   154  2.401300266721920E-004
                   155 -2.268525107917850E-004
                   156 -1.085506905780290E-004
                   157 -9.959599150532929E-006
                   158  3.589862164653110E-005
                   159  5.132510175260330E-004
                   160  8.635036423855910E-006