[Molden Format]
[Atoms] AU
  N     1    7    -4.4527169600    0.1631575000   -0.0245840500        
  C     2    6    -1.7700380400   -0.0156596300   -0.0109431000        
  C     3    6    -0.4229296900    0.0049888900   -2.2780586300        
  C     4    6    -0.4323673700   -0.0196996000    2.2600716700        
  C     5    6     2.1920859000    0.0063317600   -2.2603028300        
  C     6    6     2.1847036700   -0.0105903900    2.2529676300        
  C     7    6     3.5143115300    0.0003429900   -0.0004432500        
  H     8    1    -5.1873314600   -0.8151500500   -1.5198713800        
  H     9    1    -5.1844441000   -0.6107338500    1.5874844000        
  H    10    1    -1.4239273900    0.0252000300   -4.0418850700        
  H    11    1    -1.4383820500   -0.0282564500    4.0213477200        
  H    12    1     3.1982814200    0.0135296500   -4.0224847500        
  H    13    1     3.1834100700   -0.0189826700    4.0194136500        
  H    14    1     5.5421766500    0.0029228400    0.0030155500        
[5D]
[7F]
[GTO]
  1  0
   s    12 1.00
  0.114200D+05  0.172695D-04
  0.171200D+04  0.134411D-03
  0.389300D+03  0.694561D-03
  0.110000D+03  0.278531D-02
  0.355700D+02  0.863457D-02
  0.125400D+02  0.199805D-01
  0.464400D+01  0.262908D-01
  0.129300D+01 -0.243845D-01
  0.511800D+00 -0.924934D-01
  0.178700D+00 -0.339683D+00
  0.246240D-01  0.345111D+00
  0.112530D-01  0.752750D+00
   s    10 1.00
  0.114200D+05  0.523000D-03
  0.171200D+04  0.404500D-02
  0.389300D+03  0.207750D-01
  0.110000D+03  0.807269D-01
  0.355700D+02  0.233074D+00
  0.125400D+02  0.433501D+00
  0.464400D+01  0.347472D+00
  0.129300D+01  0.412620D-01
  0.511800D+00 -0.850799D-02
  0.178700D+00  0.238400D-02
   s    10 1.00
  0.114200D+05 -0.115000D-03
  0.171200D+04 -0.895000D-03
  0.389300D+03 -0.462400D-02
  0.110000D+03 -0.185280D-01
  0.355700D+02 -0.573390D-01
  0.125400D+02 -0.132076D+00
  0.464400D+01 -0.172510D+00
  0.129300D+01  0.151814D+00
  0.511800D+00  0.599944D+00
  0.178700D+00  0.387462D+00
   s     1 1.00
  0.129300D+01  0.100000D+01
   s     1 1.00
  0.178700D+00  0.100000D+01
   p     5 1.00
  0.266300D+02  0.146700D-01
  0.594800D+01  0.917640D-01
  0.174200D+01  0.298683D+00
  0.555000D+00  0.498487D+00
  0.172500D+00  0.337023D+00
   p     1 1.00
  0.174200D+01  0.100000D+01
   p     1 1.00
  0.555000D+00  0.100000D+01
   d     1 1.00
  0.165400D+01  0.100000D+01
   d     1 1.00
  0.469000D+00  0.100000D+01
   f     1 1.00
  0.109300D+01  0.100000D+01
  
  2  0
   s    10 1.00
  0.823600D+04  0.531000D-03
  0.123500D+04  0.410800D-02
  0.280800D+03  0.210870D-01
  0.792700D+02  0.818530D-01
  0.255900D+02  0.234817D+00
  0.899700D+01  0.434401D+00
  0.331900D+01  0.346129D+00
  0.905900D+00  0.393780D-01
  0.364300D+00 -0.898300D-02
  0.128500D+00  0.238500D-02
   s    10 1.00
  0.823600D+04 -0.113000D-03
  0.123500D+04 -0.878000D-03
  0.280800D+03 -0.454000D-02
  0.792700D+02 -0.181330D-01
  0.255900D+02 -0.557600D-01
  0.899700D+01 -0.126895D+00
  0.331900D+01 -0.170352D+00
  0.905900D+00  0.140382D+00
  0.364300D+00  0.598684D+00
  0.128500D+00  0.395389D+00
   s     1 1.00
  0.905900D+00  0.100000D+01
   s     1 1.00
  0.364300D+00  0.100000D+01
   p     5 1.00
  0.187100D+02  0.140310D-01
  0.413300D+01  0.868660D-01
  0.120000D+01  0.290216D+00
  0.382700D+00  0.501008D+00
  0.120900D+00  0.343406D+00
   p     1 1.00
  0.382700D+00  0.100000D+01
   p     1 1.00
  0.120900D+00  0.100000D+01
   d     1 1.00
  0.109700D+01  0.100000D+01
   d     1 1.00
  0.318000D+00  0.100000D+01
   f     1 1.00
  0.761000D+00  0.100000D+01
  
  3  0
   s    10 1.00
  0.823600D+04  0.531000D-03
  0.123500D+04  0.410800D-02
  0.280800D+03  0.210870D-01
  0.792700D+02  0.818530D-01
  0.255900D+02  0.234817D+00
  0.899700D+01  0.434401D+00
  0.331900D+01  0.346129D+00
  0.905900D+00  0.393780D-01
  0.364300D+00 -0.898300D-02
  0.128500D+00  0.238500D-02
   s    10 1.00
  0.823600D+04 -0.113000D-03
  0.123500D+04 -0.878000D-03
  0.280800D+03 -0.454000D-02
  0.792700D+02 -0.181330D-01
  0.255900D+02 -0.557600D-01
  0.899700D+01 -0.126895D+00
  0.331900D+01 -0.170352D+00
  0.905900D+00  0.140382D+00
  0.364300D+00  0.598684D+00
  0.128500D+00  0.395389D+00
   s     1 1.00
  0.905900D+00  0.100000D+01
   s     1 1.00
  0.364300D+00  0.100000D+01
   p     5 1.00
  0.187100D+02  0.140310D-01
  0.413300D+01  0.868660D-01
  0.120000D+01  0.290216D+00
  0.382700D+00  0.501008D+00
  0.120900D+00  0.343406D+00
   p     1 1.00
  0.382700D+00  0.100000D+01
   p     1 1.00
  0.120900D+00  0.100000D+01
   d     1 1.00
  0.109700D+01  0.100000D+01
   d     1 1.00
  0.318000D+00  0.100000D+01
   f     1 1.00
  0.761000D+00  0.100000D+01
  
  4  0
   s    10 1.00
  0.823600D+04  0.531000D-03
  0.123500D+04  0.410800D-02
  0.280800D+03  0.210870D-01
  0.792700D+02  0.818530D-01
  0.255900D+02  0.234817D+00
  0.899700D+01  0.434401D+00
  0.331900D+01  0.346129D+00
  0.905900D+00  0.393780D-01
  0.364300D+00 -0.898300D-02
  0.128500D+00  0.238500D-02
   s    10 1.00
  0.823600D+04 -0.113000D-03
  0.123500D+04 -0.878000D-03
  0.280800D+03 -0.454000D-02
  0.792700D+02 -0.181330D-01
  0.255900D+02 -0.557600D-01
  0.899700D+01 -0.126895D+00
  0.331900D+01 -0.170352D+00
  0.905900D+00  0.140382D+00
  0.364300D+00  0.598684D+00
  0.128500D+00  0.395389D+00
   s     1 1.00
  0.905900D+00  0.100000D+01
   s     1 1.00
  0.364300D+00  0.100000D+01
   p     5 1.00
  0.187100D+02  0.140310D-01
  0.413300D+01  0.868660D-01
  0.120000D+01  0.290216D+00
  0.382700D+00  0.501008D+00
  0.120900D+00  0.343406D+00
   p     1 1.00
  0.382700D+00  0.100000D+01
   p     1 1.00
  0.120900D+00  0.100000D+01
   d     1 1.00
  0.109700D+01  0.100000D+01
   d     1 1.00
  0.318000D+00  0.100000D+01
   f     1 1.00
  0.761000D+00  0.100000D+01
  
  5  0
   s    10 1.00
  0.823600D+04  0.531000D-03
  0.123500D+04  0.410800D-02
  0.280800D+03  0.210870D-01
  0.792700D+02  0.818530D-01
  0.255900D+02  0.234817D+00
  0.899700D+01  0.434401D+00
  0.331900D+01  0.346129D+00
  0.905900D+00  0.393780D-01
  0.364300D+00 -0.898300D-02
  0.128500D+00  0.238500D-02
   s    10 1.00
  0.823600D+04 -0.113000D-03
  0.123500D+04 -0.878000D-03
  0.280800D+03 -0.454000D-02
  0.792700D+02 -0.181330D-01
  0.255900D+02 -0.557600D-01
  0.899700D+01 -0.126895D+00
  0.331900D+01 -0.170352D+00
  0.905900D+00  0.140382D+00
  0.364300D+00  0.598684D+00
  0.128500D+00  0.395389D+00
   s     1 1.00
  0.905900D+00  0.100000D+01
   s     1 1.00
  0.364300D+00  0.100000D+01
   p     5 1.00
  0.187100D+02  0.140310D-01
  0.413300D+01  0.868660D-01
  0.120000D+01  0.290216D+00
  0.382700D+00  0.501008D+00
  0.120900D+00  0.343406D+00
   p     1 1.00
  0.382700D+00  0.100000D+01
   p     1 1.00
  0.120900D+00  0.100000D+01
   d     1 1.00
  0.109700D+01  0.100000D+01
   d     1 1.00
  0.318000D+00  0.100000D+01
   f     1 1.00
  0.761000D+00  0.100000D+01
  
  6  0
   s    10 1.00
  0.823600D+04  0.531000D-03
  0.123500D+04  0.410800D-02
  0.280800D+03  0.210870D-01
  0.792700D+02  0.818530D-01
  0.255900D+02  0.234817D+00
  0.899700D+01  0.434401D+00
  0.331900D+01  0.346129D+00
  0.905900D+00  0.393780D-01
  0.364300D+00 -0.898300D-02
  0.128500D+00  0.238500D-02
   s    10 1.00
  0.823600D+04 -0.113000D-03
  0.123500D+04 -0.878000D-03
  0.280800D+03 -0.454000D-02
  0.792700D+02 -0.181330D-01
  0.255900D+02 -0.557600D-01
  0.899700D+01 -0.126895D+00
  0.331900D+01 -0.170352D+00
  0.905900D+00  0.140382D+00
  0.364300D+00  0.598684D+00
  0.128500D+00  0.395389D+00
   s     1 1.00
  0.905900D+00  0.100000D+01
   s     1 1.00
  0.364300D+00  0.100000D+01
   p     5 1.00
  0.187100D+02  0.140310D-01
  0.413300D+01  0.868660D-01
  0.120000D+01  0.290216D+00
  0.382700D+00  0.501008D+00
  0.120900D+00  0.343406D+00
   p     1 1.00
  0.382700D+00  0.100000D+01
   p     1 1.00
  0.120900D+00  0.100000D+01
   d     1 1.00
  0.109700D+01  0.100000D+01
   d     1 1.00
  0.318000D+00  0.100000D+01
   f     1 1.00
  0.761000D+00  0.100000D+01
  
  7  0
   s    10 1.00
  0.823600D+04  0.531000D-03
  0.123500D+04  0.410800D-02
  0.280800D+03  0.210870D-01
  0.792700D+02  0.818530D-01
  0.255900D+02  0.234817D+00
  0.899700D+01  0.434401D+00
  0.331900D+01  0.346129D+00
  0.905900D+00  0.393780D-01
  0.364300D+00 -0.898300D-02
  0.128500D+00  0.238500D-02
   s    10 1.00
  0.823600D+04 -0.113000D-03
  0.123500D+04 -0.878000D-03
  0.280800D+03 -0.454000D-02
  0.792700D+02 -0.181330D-01
  0.255900D+02 -0.557600D-01
  0.899700D+01 -0.126895D+00
  0.331900D+01 -0.170352D+00
  0.905900D+00  0.140382D+00
  0.364300D+00  0.598684D+00
  0.128500D+00  0.395389D+00
   s     1 1.00
  0.905900D+00  0.100000D+01
   s     1 1.00
  0.364300D+00  0.100000D+01
   p     5 1.00
  0.187100D+02  0.140310D-01
  0.413300D+01  0.868660D-01
  0.120000D+01  0.290216D+00
  0.382700D+00  0.501008D+00
  0.120900D+00  0.343406D+00
   p     1 1.00
  0.382700D+00  0.100000D+01
   p     1 1.00
  0.120900D+00  0.100000D+01
   d     1 1.00
  0.109700D+01  0.100000D+01
   d     1 1.00
  0.318000D+00  0.100000D+01
   f     1 1.00
  0.761000D+00  0.100000D+01
  
  8  0
   s     4 1.00
  0.130100D+02  0.196850D-01
  0.196200D+01  0.137977D+00
  0.444600D+00  0.478148D+00
  0.122000D+00  0.501240D+00
   s     1 1.00
  0.122000D+00  0.100000D+01
   p     1 1.00
  0.727000D+00  0.100000D+01
  
  9  0
   s     4 1.00
  0.130100D+02  0.196850D-01
  0.196200D+01  0.137977D+00
  0.444600D+00  0.478148D+00
  0.122000D+00  0.501240D+00
   s     1 1.00
  0.122000D+00  0.100000D+01
   p     1 1.00
  0.727000D+00  0.100000D+01
  
 10  0
   s     4 1.00
  0.130100D+02  0.196850D-01
  0.196200D+01  0.137977D+00
  0.444600D+00  0.478148D+00
  0.122000D+00  0.501240D+00
   s     1 1.00
  0.122000D+00  0.100000D+01
   p     1 1.00
  0.727000D+00  0.100000D+01
  
 11  0
   s     4 1.00
  0.130100D+02  0.196850D-01
  0.196200D+01  0.137977D+00
  0.444600D+00  0.478148D+00
  0.122000D+00  0.501240D+00
   s     1 1.00
  0.122000D+00  0.100000D+01
   p     1 1.00
  0.727000D+00  0.100000D+01
  
 12  0
   s     4 1.00
  0.130100D+02  0.196850D-01
  0.196200D+01  0.137977D+00
  0.444600D+00  0.478148D+00
  0.122000D+00  0.501240D+00
   s     1 1.00
  0.122000D+00  0.100000D+01
   p     1 1.00
  0.727000D+00  0.100000D+01
  
 13  0
   s     4 1.00
  0.130100D+02  0.196850D-01
  0.196200D+01  0.137977D+00
  0.444600D+00  0.478148D+00
  0.122000D+00  0.501240D+00
   s     1 1.00
  0.122000D+00  0.100000D+01
   p     1 1.00
  0.727000D+00  0.100000D+01
  
 14  0
   s     4 1.00
  0.130100D+02  0.196850D-01
  0.196200D+01  0.137977D+00
  0.444600D+00  0.478148D+00
  0.122000D+00  0.501240D+00
   s     1 1.00
  0.122000D+00  0.100000D+01
   p     1 1.00
  0.727000D+00  0.100000D+01
  
[MO]
 Sym= __1_A__
 Ene=  0.000000000000000E+000
 Spin= Alpha
 Occup=    2.00000000000000     
                     1  2.224336264164845E-004
                     2  0.998066515423605     
                     3  4.206067708919260E-003
                     4  1.919634077504632E-003
                     5  5.420090605711258E-003
                     6  5.448577332668177E-003
                     7 -4.758191940352686E-003
                     8  4.130094719387747E-004
                     9 -7.501858150372069E-004
                    10  2.370649524515624E-004
                    11 -4.607644626412697E-005
                    12 -1.331597659638979E-003
                    13  3.092861492394558E-003
                    14 -2.513058115888098E-004
                    15 -5.384103146491454E-006
                    16 -6.846070768949214E-006
                    17  6.044629521253495E-007
                    18  7.988136840835295E-005
                    19  6.423501752495848E-005
                    20 -3.842959616866491E-004
                    21  4.995683941278718E-005
                    22 -2.532493697372255E-005
                    23  4.743095821988644E-005
                    24 -4.846810607808567E-004
                    25 -1.182532738131491E-005
                    26 -1.465818659573688E-004
                    27 -7.169447079382628E-005
                    28  1.287320414466458E-005
                    29 -5.060865515498340E-006
                    30 -9.897980667139623E-005
                    31 -5.877051706985655E-005
                    32 -3.912580173053501E-004
                    33  9.759490994278284E-004
                    34  2.414249714443884E-004
                    35 -1.116311858590298E-004
                    36 -4.515751980218285E-003
                    37 -2.625782926047781E-006
                    38 -2.511662470922739E-005
                    39  2.032091265392571E-004
                    40 -1.269335891598791E-005
                    41  7.274484458685124E-005
                    42  4.854969874559075E-003
                    43  7.820863433554901E-004
                    44 -3.624632204266016E-004
                    45 -2.282927200163011E-004
                    46  4.053974883152774E-006
                    47  1.222481194001806E-006
                    48  2.100928179065774E-004
                    49  4.768721453773859E-005
                    50  4.621444532278561E-004
                    51  5.455746553245803E-005
                    52 -8.429277680603480E-006
                    53 -4.686602805687548E-005
                    54 -3.537722346921019E-004
                    55  4.097977542173578E-006
                    56 -6.231772019863392E-005
                    57  1.108804645753169E-005
                    58  2.849026760752026E-006
                    59  3.214131891470842E-007
                    60 -3.490877862691798E-005
                    61  3.624131383137219E-005
                    62 -3.893339854664079E-004
                    63 -1.918380064857365E-003
                    64  8.233655744821078E-005
                    65  9.963737583074230E-004
                    66  5.975547845772127E-004
                    67 -8.767376245645115E-005
                    68 -6.144127371770770E-004
                    69  6.353043751305216E-004
                    70  8.186446703999040E-005
                    71  1.538188407788736E-004
                    72 -2.527671496406156E-004
                    73 -3.520853630128307E-004
                    74 -8.873407107121264E-004
                    75 -7.624088744772706E-005
                    76 -1.391409788846353E-005
                    77  1.879117038642003E-005
                    78  6.468000654010102E-005
                    79 -9.409270094754126E-006
                    80  1.976036330050330E-004
                    81  1.855585142703695E-004
                    82 -2.989668501516061E-005
                    83 -1.051089696531104E-004
                    84  5.167964064575751E-005
                    85 -9.779032909108072E-006
                    86 -6.434380472008755E-005
                    87  2.124718718031546E-005
                    88 -1.044414572044634E-005
                    89  1.312146546283417E-005
                    90 -4.962895635546108E-005
                    91 -1.173446386017666E-005
                    92 -3.235803108832266E-004
                    93 -1.702626837309803E-003
                    94  1.116383336672605E-004
                    95  6.805836761596589E-004
                    96  6.212983631716285E-004
                    97 -8.813165254032200E-005
                    98  5.924446399711942E-004
                    99  5.570258879703624E-004
                   100  8.559184625491825E-005
                   101 -6.844883323235005E-005
                   102 -6.907806745635108E-004
                   103 -3.578687288164060E-004
                   104  7.041170906774777E-004
                   105 -7.584209440475209E-005
                   106  1.152332553887895E-005
                   107 -1.769893257534445E-005
                   108  6.067209173446798E-005
                   109 -9.891967484210132E-006
                   110  1.616163864867536E-004
                   111 -1.860652296262072E-004
                   112  2.408486791982694E-005
                   113 -1.314989099832473E-004
                   114  5.669629168782591E-005
                   115  5.770792584859844E-006
                   116 -4.731283405625241E-005
                   117  2.106296289680242E-005
                   118  1.272895300318474E-005
                   119 -1.281068635506632E-005
                   120 -4.293781338663857E-005
                   121 -1.089843679934335E-005
                   122 -1.973700308048954E-004
                   123 -3.253380699502631E-004
                   124  6.121029598445039E-005
                   125  5.609045052932107E-004
                   126 -5.675680200879849E-004
                   127 -3.359195010871703E-005
                   128  1.970734221189502E-005
                   129  2.685344344530897E-004
                   130 -2.461407986483266E-005
                   131  3.782230890192860E-005
                   132  1.060502183521249E-003
                   133  1.583911239430004E-004
                   134 -1.806287746689023E-004
                   135  6.777341986505767E-006
                   136  5.772472019917622E-007
                   137 -4.009939763802321E-006
                   138 -1.621517678884292E-006
                   139  9.350066939537220E-006
                   140  9.579574223516004E-005
                   141  2.089051410743186E-004
                   142  9.380690894118202E-006
                   143 -2.055587639120970E-004
                   144 -1.740232229096456E-005
                   145 -1.356705877841503E-005
                   146 -1.569405817466366E-005
                   147  2.385158311952158E-006
                   148 -4.959073446510046E-006
                   149 -1.930971548630697E-006
                   150 -4.870893304397094E-005
                   151 -1.317576840079299E-006
                   152 -1.785391013701757E-004
                   153 -2.642755199948157E-004
                   154  4.533404842024452E-005
                   155  5.270588302560005E-004
                   156 -5.569522626203452E-004
                   157 -3.254410373636120E-005
                   158 -3.019875304458253E-005
                   159  1.784377149323581E-004
                   160 -2.642158258581017E-005
                   161  1.971595050767335E-005
                   162  6.261188157596896E-004
                   163  1.515554530910521E-004
                   164  3.603763901402580E-004
                   165  1.697773380077217E-006
                   166  6.894099319211580E-007
                   167  3.809675783199074E-006
                   168  2.219634615434700E-006
                   169  8.879114003869292E-006
                   170  5.419660196417694E-005
                   171 -1.749479039938122E-004
                   172 -7.824147713091006E-006
                   173 -1.599920385466689E-004
                   174 -1.296705781426014E-005
                   175  8.589218188102124E-006
                   176 -1.400930831144553E-005
                   177  2.722111546049706E-006
                   178  3.355387413449774E-006
                   179  1.454218654173655E-006
                   180 -4.041940419565509E-005
                   181 -1.797589829852332E-006
                   182 -1.245546627155620E-004
                   183 -3.854893798435980E-004
                   184  2.714358570020336E-005
                   185  1.501277248069408E-004
                   186 -1.643054408613524E-005
                   187 -4.308791546909874E-005
                   188 -1.035198285649894E-005
                   189  9.411843768524713E-005
                   190  2.181680163545691E-005
                   191  4.400834084569054E-005
                   192 -3.656134488407211E-004
                   193 -1.100955516223236E-004
                   194  2.392916907104441E-004
                   195 -1.042496908222611E-005
                   196  3.670017306501842E-007
                   197 -9.696326252815622E-009
                   198  4.169062757659032E-006
                   199 -2.359587315839830E-006
                   200 -1.135923876072021E-004
                   201 -3.638620518688615E-005
                   202  5.068358064114234E-007
                   203  6.392822324644524E-005
                   204  1.704412732342809E-005
                   205  4.177240613363541E-007
                   206  9.038755047894674E-007
                   207  3.105784929136159E-006
                   208  2.875056230434454E-006
                   209 -1.343174768874732E-007
                   210 -5.617538117061747E-006
                   211 -2.632021688339045E-006
                   212  2.826651647299797E-003
                   213 -2.213843438323872E-003
                   214  1.845936727076240E-004
                   215  3.245910694702557E-004
                   216  3.496411611940833E-004
                   217  2.893442057898240E-003
                   218 -2.247951134810709E-003
                   219  1.916861588808677E-004
                   220  2.780188713571311E-004
                   221 -4.000209818762711E-004
                   222 -5.158156063722514E-004
                   223 -3.006758586961278E-004
                   224 -6.375251102874507E-005
                   225  9.679136429860298E-006
                   226  3.647146972235314E-005
                   227 -5.020546150446399E-004
                   228 -3.134650598376165E-004
                   229 -5.878091080054493E-005
                   230  1.065132496817853E-005
                   231 -3.834219481636429E-005
                   232 -1.162854731321806E-004
                   233 -4.871471887109683E-004
                   234  4.099051227574629E-006
                   235 -1.440124104966465E-006
                   236 -8.501182465603352E-006
                   237 -1.265426928009769E-004
                   238 -4.488555862995725E-004
                   239  6.143432093022149E-006
                   240 -1.773198648853959E-006
                   241  1.066271630055762E-005
                   242  1.988847607471575E-005
                   243  1.155047045418288E-004
                   244  2.970852948717808E-005
                   245  1.801663880021606E-006
                   246  3.045294383037301E-007
 Sym= __2_A__
 Ene=  0.000000000000000E+000
 Spin= Alpha
 Occup=    2.00000000000000     
                     1 -2.126446895153795E-005
                     2 -8.375133833403633E-005
                     3  1.977187774896813E-003
                     4 -1.232209962766381E-005
                     5  1.248669340507883E-003
                     6  1.958432774653250E-003
                     7  3.107262521076486E-004
                     8 -3.448258286680183E-005
                     9 -1.488827855629135E-004
                    10  9.871789782579300E-005
                    11 -3.725746091878708E-006
                    12  3.498635699310608E-005
                    13  4.269798356045482E-005
                    14  1.306657838294106E-005
                    15 -7.294407146476874E-005
                    16  1.903565856174489E-006
                    17 -1.596558052233948E-006
                    18  3.967240664146412E-005
                    19 -3.036519046075735E-006
                    20  1.885328229117220E-004
                    21 -1.178230291340041E-005
                    22  4.808835169486231E-006
                    23  9.737377099038276E-005
                    24 -3.973772577445863E-005
                    25 -1.050661580169368E-005
                    26  1.398452924164749E-004
                    27 -5.742870402058230E-005
                    28  3.804803640861868E-007
                    29  3.279106699726288E-007
                    30  1.284678974440989E-004
                    31  3.611539172315961E-005
                    32   1.00097053122432     
                    33  8.778912593904344E-003
                    34  2.780465201070239E-003
                    35 -8.215065486061823E-003
                    36 -2.612022017779242E-003
                    37  7.065412847918978E-004
                    38  1.098495526573069E-006
                    39  1.098080143346174E-003
                    40 -2.276225871114972E-004
                    41 -1.377930431334198E-005
                    42  3.474434512256787E-003
                    43 -1.296170672400154E-004
                    44 -3.292775210073498E-005
                    45  2.960895600641536E-004
                    46  3.498579830897638E-006
                    47 -2.462081190423303E-006
                    48  4.202328236882318E-004
                    49 -2.506669226606736E-005
                    50 -1.048056400796417E-003
                    51 -2.245621453974101E-005
                    52  1.143168229199581E-005
                    53 -1.102239105182740E-004
                    54  3.257102483913743E-005
                    55 -1.480447155394134E-006
                    56  3.133189730115365E-004
                    57 -8.638510342073823E-006
                    58 -2.218661340216298E-006
                    59 -6.146903077097647E-007
                    60  8.253672241013799E-005
                    61  1.904951161405775E-005
                    62  1.229802542557107E-002
                    63 -1.872708174429118E-003
                    64 -3.091002677759963E-004
                    65  3.136091262508029E-003
                    66 -1.439814250043346E-004
                    67  1.249836306641967E-004
                    68  2.584754909203909E-004
                    69  2.985896838142737E-005
                    70 -5.008472626103351E-007
                    71  5.056867083776095E-004
                    72  1.889184617008929E-004
                    73 -2.284054775343365E-005
                    74 -1.850481708577062E-003
                    75 -1.058890906658902E-005
                    76  2.516051448495391E-005
                    77  9.075869944936138E-006
                    78 -3.610932022874890E-005
                    79 -4.933533692316707E-006
                    80 -4.258809112732860E-004
                    81 -4.646703873570617E-004
                    82  1.277561472567424E-006
                    83  7.650185215871003E-004
                    84 -1.199513718718553E-006
                    85  5.082900518265533E-005
                    86  1.084618825992016E-004
                    87  1.645234716508700E-006
                    88 -1.606200164222447E-005
                    89 -7.986986518238999E-006
                    90 -2.879787431577236E-005
                    91  4.912470760601580E-006
                    92  1.249869087907154E-002
                    93 -1.858698142502579E-003
                    94 -3.168236211447671E-004
                    95  3.172928850699257E-003
                    96 -1.501738727713335E-004
                    97  1.284939957025416E-004
                    98 -2.556547778758047E-004
                    99  2.617021651445794E-005
                   100  5.437630234390337E-006
                   101 -5.354135580764925E-004
                   102  1.244548579805457E-004
                   103 -4.211711539093031E-005
                   104  1.836585732418421E-003
                   105 -9.858932849364106E-006
                   106 -2.416328383618994E-005
                   107 -8.305762323041229E-006
                   108 -3.550170166067704E-005
                   109 -4.886646244079467E-006
                   110 -4.132645995421299E-004
                   111  4.738145015935857E-004
                   112 -1.039099272108704E-006
                   113  7.572643326640319E-004
                   114 -3.639887065966922E-006
                   115 -5.132297628917120E-005
                   116  1.064849459478300E-004
                   117 -3.856862922022373E-007
                   118  1.676516064922296E-005
                   119  5.792543547367031E-006
                   120 -3.032051786947729E-005
                   121  5.246179434337901E-006
                   122 -1.507868723137431E-004
                   123 -7.186032964314491E-004
                   124  2.512938326193528E-004
                   125 -3.153725116910740E-004
                   126 -1.911768858319393E-004
                   127  2.458628920842957E-005
                   128 -4.432065962197582E-005
                   129  6.015312053738431E-004
                   130 -3.186678034995484E-006
                   131  4.714397240215447E-005
                   132  6.051370702250683E-004
                   133  1.228325899521108E-006
                   134  3.520908183644942E-004
                   135 -2.001259165199126E-008
                   136  4.195097017545432E-005
                   137  1.935692146968616E-007
                   138 -3.355609881110300E-005
                   139 -1.668221089458430E-006
                   140  1.953490763787983E-004
                   141 -2.628246255062995E-004
                   142  2.135927035212122E-006
                   143 -2.657811943460114E-004
                   144 -2.438517938942741E-006
                   145 -1.807104418268245E-005
                   146  1.362093956327035E-005
                   147  3.344591024412211E-008
                   148 -1.283215484242780E-005
                   149 -2.185426548021468E-006
                   150 -2.527925125435923E-005
                   151 -5.552811300641239E-007
                   152 -1.458858866608040E-004
                   153 -7.089877518742511E-004
                   154  2.541523666983249E-004
                   155 -3.317827824686937E-004
                   156 -1.892079574183322E-004
                   157  2.240628470678069E-005
                   158  4.136021256915313E-005
                   159  5.991550883666409E-004
                   160 -2.569232880483555E-007