[Molden Format]
[Atoms] AU
  N     1    7    -4.4519150800    0.1645695100   -0.0000004400        
  C     2    6    -1.7695092000   -0.0145096000   -0.0000001700        
  C     3    6    -0.4270927200   -0.0061402300   -2.2691546100        
  C     4    6    -0.4270931100   -0.0061391100    2.2691544900        
  C     5    6     2.1889955900   -0.0004823800   -2.2566388900        
  C     6    6     2.1889952100   -0.0004812700    2.2566392100        
  C     7    6     3.5149715000    0.0022090000    0.0000002700        
  H     8    1    -5.4565260000   -1.0366484800   -2.1323980000        
  H     9    1    -5.1855380900   -0.7126258900    1.5571951400        
  H    10    1    -1.4305344500   -0.0005073500   -4.0318143700        
  H    11    1    -1.4305351200   -0.0005053700    4.0318140800        
  H    12    1     3.1914120400   -0.0010699000   -4.0209976100        
  H    13    1     3.1914113700   -0.0010679200    4.0209980900        
  H    14    1     5.5428332300    0.0050250700    0.0000004400        
[5D]
[7F]
[GTO]
  1  0
   s    12 1.00
  0.114200D+05  0.172695D-04
  0.171200D+04  0.134411D-03
  0.389300D+03  0.694561D-03
  0.110000D+03  0.278531D-02
  0.355700D+02  0.863457D-02
  0.125400D+02  0.199805D-01
  0.464400D+01  0.262908D-01
  0.129300D+01 -0.243845D-01
  0.511800D+00 -0.924934D-01
  0.178700D+00 -0.339683D+00
  0.246240D-01  0.345111D+00
  0.112530D-01  0.752750D+00
   s    10 1.00
  0.114200D+05  0.523000D-03
  0.171200D+04  0.404500D-02
  0.389300D+03  0.207750D-01
  0.110000D+03  0.807269D-01
  0.355700D+02  0.233074D+00
  0.125400D+02  0.433501D+00
  0.464400D+01  0.347472D+00
  0.129300D+01  0.412620D-01
  0.511800D+00 -0.850799D-02
  0.178700D+00  0.238400D-02
   s    10 1.00
  0.114200D+05 -0.115000D-03
  0.171200D+04 -0.895000D-03
  0.389300D+03 -0.462400D-02
  0.110000D+03 -0.185280D-01
  0.355700D+02 -0.573390D-01
  0.125400D+02 -0.132076D+00
  0.464400D+01 -0.172510D+00
  0.129300D+01  0.151814D+00
  0.511800D+00  0.599944D+00
  0.178700D+00  0.387462D+00
   s     1 1.00
  0.129300D+01  0.100000D+01
   s     1 1.00
  0.178700D+00  0.100000D+01
   p     5 1.00
  0.266300D+02  0.146700D-01
  0.594800D+01  0.917640D-01
  0.174200D+01  0.298683D+00
  0.555000D+00  0.498487D+00
  0.172500D+00  0.337023D+00
   p     1 1.00
  0.174200D+01  0.100000D+01
   p     1 1.00
  0.555000D+00  0.100000D+01
   d     1 1.00
  0.165400D+01  0.100000D+01
   d     1 1.00
  0.469000D+00  0.100000D+01
   f     1 1.00
  0.109300D+01  0.100000D+01
  
  2  0
   s    10 1.00
  0.823600D+04  0.531000D-03
  0.123500D+04  0.410800D-02
  0.280800D+03  0.210870D-01
  0.792700D+02  0.818530D-01
  0.255900D+02  0.234817D+00
  0.899700D+01  0.434401D+00
  0.331900D+01  0.346129D+00
  0.905900D+00  0.393780D-01
  0.364300D+00 -0.898300D-02
  0.128500D+00  0.238500D-02
   s    10 1.00
  0.823600D+04 -0.113000D-03
  0.123500D+04 -0.878000D-03
  0.280800D+03 -0.454000D-02
  0.792700D+02 -0.181330D-01
  0.255900D+02 -0.557600D-01
  0.899700D+01 -0.126895D+00
  0.331900D+01 -0.170352D+00
  0.905900D+00  0.140382D+00
  0.364300D+00  0.598684D+00
  0.128500D+00  0.395389D+00
   s     1 1.00
  0.905900D+00  0.100000D+01
   s     1 1.00
  0.364300D+00  0.100000D+01
   p     5 1.00
  0.187100D+02  0.140310D-01
  0.413300D+01  0.868660D-01
  0.120000D+01  0.290216D+00
  0.382700D+00  0.501008D+00
  0.120900D+00  0.343406D+00
   p     1 1.00
  0.382700D+00  0.100000D+01
   p     1 1.00
  0.120900D+00  0.100000D+01
   d     1 1.00
  0.109700D+01  0.100000D+01
   d     1 1.00
  0.318000D+00  0.100000D+01
   f     1 1.00
  0.761000D+00  0.100000D+01
  
  3  0
   s    10 1.00
  0.823600D+04  0.531000D-03
  0.123500D+04  0.410800D-02
  0.280800D+03  0.210870D-01
  0.792700D+02  0.818530D-01
  0.255900D+02  0.234817D+00
  0.899700D+01  0.434401D+00
  0.331900D+01  0.346129D+00
  0.905900D+00  0.393780D-01
  0.364300D+00 -0.898300D-02
  0.128500D+00  0.238500D-02
   s    10 1.00
  0.823600D+04 -0.113000D-03
  0.123500D+04 -0.878000D-03
  0.280800D+03 -0.454000D-02
  0.792700D+02 -0.181330D-01
  0.255900D+02 -0.557600D-01
  0.899700D+01 -0.126895D+00
  0.331900D+01 -0.170352D+00
  0.905900D+00  0.140382D+00
  0.364300D+00  0.598684D+00
  0.128500D+00  0.395389D+00
   s     1 1.00
  0.905900D+00  0.100000D+01
   s     1 1.00
  0.364300D+00  0.100000D+01
   p     5 1.00
  0.187100D+02  0.140310D-01
  0.413300D+01  0.868660D-01
  0.120000D+01  0.290216D+00
  0.382700D+00  0.501008D+00
  0.120900D+00  0.343406D+00
   p     1 1.00
  0.382700D+00  0.100000D+01
   p     1 1.00
  0.120900D+00  0.100000D+01
   d     1 1.00
  0.109700D+01  0.100000D+01
   d     1 1.00
  0.318000D+00  0.100000D+01
   f     1 1.00
  0.761000D+00  0.100000D+01
  
  4  0
   s    10 1.00
  0.823600D+04  0.531000D-03
  0.123500D+04  0.410800D-02
  0.280800D+03  0.210870D-01
  0.792700D+02  0.818530D-01
  0.255900D+02  0.234817D+00
  0.899700D+01  0.434401D+00
  0.331900D+01  0.346129D+00
  0.905900D+00  0.393780D-01
  0.364300D+00 -0.898300D-02
  0.128500D+00  0.238500D-02
   s    10 1.00
  0.823600D+04 -0.113000D-03
  0.123500D+04 -0.878000D-03
  0.280800D+03 -0.454000D-02
  0.792700D+02 -0.181330D-01
  0.255900D+02 -0.557600D-01
  0.899700D+01 -0.126895D+00
  0.331900D+01 -0.170352D+00
  0.905900D+00  0.140382D+00
  0.364300D+00  0.598684D+00
  0.128500D+00  0.395389D+00
   s     1 1.00
  0.905900D+00  0.100000D+01
   s     1 1.00
  0.364300D+00  0.100000D+01
   p     5 1.00
  0.187100D+02  0.140310D-01
  0.413300D+01  0.868660D-01
  0.120000D+01  0.290216D+00
  0.382700D+00  0.501008D+00
  0.120900D+00  0.343406D+00
   p     1 1.00
  0.382700D+00  0.100000D+01
   p     1 1.00
  0.120900D+00  0.100000D+01
   d     1 1.00
  0.109700D+01  0.100000D+01
   d     1 1.00
  0.318000D+00  0.100000D+01
   f     1 1.00
  0.761000D+00  0.100000D+01
  
  5  0
   s    10 1.00
  0.823600D+04  0.531000D-03
  0.123500D+04  0.410800D-02
  0.280800D+03  0.210870D-01
  0.792700D+02  0.818530D-01
  0.255900D+02  0.234817D+00
  0.899700D+01  0.434401D+00
  0.331900D+01  0.346129D+00
  0.905900D+00  0.393780D-01
  0.364300D+00 -0.898300D-02
  0.128500D+00  0.238500D-02
   s    10 1.00
  0.823600D+04 -0.113000D-03
  0.123500D+04 -0.878000D-03
  0.280800D+03 -0.454000D-02
  0.792700D+02 -0.181330D-01
  0.255900D+02 -0.557600D-01
  0.899700D+01 -0.126895D+00
  0.331900D+01 -0.170352D+00
  0.905900D+00  0.140382D+00
  0.364300D+00  0.598684D+00
  0.128500D+00  0.395389D+00
   s     1 1.00
  0.905900D+00  0.100000D+01
   s     1 1.00
  0.364300D+00  0.100000D+01
   p     5 1.00
  0.187100D+02  0.140310D-01
  0.413300D+01  0.868660D-01
  0.120000D+01  0.290216D+00
  0.382700D+00  0.501008D+00
  0.120900D+00  0.343406D+00
   p     1 1.00
  0.382700D+00  0.100000D+01
   p     1 1.00
  0.120900D+00  0.100000D+01
   d     1 1.00
  0.109700D+01  0.100000D+01
   d     1 1.00
  0.318000D+00  0.100000D+01
   f     1 1.00
  0.761000D+00  0.100000D+01
  
  6  0
   s    10 1.00
  0.823600D+04  0.531000D-03
  0.123500D+04  0.410800D-02
  0.280800D+03  0.210870D-01
  0.792700D+02  0.818530D-01
  0.255900D+02  0.234817D+00
  0.899700D+01  0.434401D+00
  0.331900D+01  0.346129D+00
  0.905900D+00  0.393780D-01
  0.364300D+00 -0.898300D-02
  0.128500D+00  0.238500D-02
   s    10 1.00
  0.823600D+04 -0.113000D-03
  0.123500D+04 -0.878000D-03
  0.280800D+03 -0.454000D-02
  0.792700D+02 -0.181330D-01
  0.255900D+02 -0.557600D-01
  0.899700D+01 -0.126895D+00
  0.331900D+01 -0.170352D+00
  0.905900D+00  0.140382D+00
  0.364300D+00  0.598684D+00
  0.128500D+00  0.395389D+00
   s     1 1.00
  0.905900D+00  0.100000D+01
   s     1 1.00
  0.364300D+00  0.100000D+01
   p     5 1.00
  0.187100D+02  0.140310D-01
  0.413300D+01  0.868660D-01
  0.120000D+01  0.290216D+00
  0.382700D+00  0.501008D+00
  0.120900D+00  0.343406D+00
   p     1 1.00
  0.382700D+00  0.100000D+01
   p     1 1.00
  0.120900D+00  0.100000D+01
   d     1 1.00
  0.109700D+01  0.100000D+01
   d     1 1.00
  0.318000D+00  0.100000D+01
   f     1 1.00
  0.761000D+00  0.100000D+01
  
  7  0
   s    10 1.00
  0.823600D+04  0.531000D-03
  0.123500D+04  0.410800D-02
  0.280800D+03  0.210870D-01
  0.792700D+02  0.818530D-01
  0.255900D+02  0.234817D+00
  0.899700D+01  0.434401D+00
  0.331900D+01  0.346129D+00
  0.905900D+00  0.393780D-01
  0.364300D+00 -0.898300D-02
  0.128500D+00  0.238500D-02
   s    10 1.00
  0.823600D+04 -0.113000D-03
  0.123500D+04 -0.878000D-03
  0.280800D+03 -0.454000D-02
  0.792700D+02 -0.181330D-01
  0.255900D+02 -0.557600D-01
  0.899700D+01 -0.126895D+00
  0.331900D+01 -0.170352D+00
  0.905900D+00  0.140382D+00
  0.364300D+00  0.598684D+00
  0.128500D+00  0.395389D+00
   s     1 1.00
  0.905900D+00  0.100000D+01
   s     1 1.00
  0.364300D+00  0.100000D+01
   p     5 1.00
  0.187100D+02  0.140310D-01
  0.413300D+01  0.868660D-01
  0.120000D+01  0.290216D+00
  0.382700D+00  0.501008D+00
  0.120900D+00  0.343406D+00
   p     1 1.00
  0.382700D+00  0.100000D+01
   p     1 1.00
  0.120900D+00  0.100000D+01
   d     1 1.00
  0.109700D+01  0.100000D+01
   d     1 1.00
  0.318000D+00  0.100000D+01
   f     1 1.00
  0.761000D+00  0.100000D+01
  
  8  0
   s     4 1.00
  0.130100D+02  0.196850D-01
  0.196200D+01  0.137977D+00
  0.444600D+00  0.478148D+00
  0.122000D+00  0.501240D+00
   s     1 1.00
  0.122000D+00  0.100000D+01
   p     1 1.00
  0.727000D+00  0.100000D+01
  
  9  0
   s     4 1.00
  0.130100D+02  0.196850D-01
  0.196200D+01  0.137977D+00
  0.444600D+00  0.478148D+00
  0.122000D+00  0.501240D+00
   s     1 1.00
  0.122000D+00  0.100000D+01
   p     1 1.00
  0.727000D+00  0.100000D+01
  
 10  0
   s     4 1.00
  0.130100D+02  0.196850D-01
  0.196200D+01  0.137977D+00
  0.444600D+00  0.478148D+00
  0.122000D+00  0.501240D+00
   s     1 1.00
  0.122000D+00  0.100000D+01
   p     1 1.00
  0.727000D+00  0.100000D+01
  
 11  0
   s     4 1.00
  0.130100D+02  0.196850D-01
  0.196200D+01  0.137977D+00
  0.444600D+00  0.478148D+00
  0.122000D+00  0.501240D+00
   s     1 1.00
  0.122000D+00  0.100000D+01
   p     1 1.00
  0.727000D+00  0.100000D+01
  
 12  0
   s     4 1.00
  0.130100D+02  0.196850D-01
  0.196200D+01  0.137977D+00
  0.444600D+00  0.478148D+00
  0.122000D+00  0.501240D+00
   s     1 1.00
  0.122000D+00  0.100000D+01
   p     1 1.00
  0.727000D+00  0.100000D+01
  
 13  0
   s     4 1.00
  0.130100D+02  0.196850D-01
  0.196200D+01  0.137977D+00
  0.444600D+00  0.478148D+00
  0.122000D+00  0.501240D+00
   s     1 1.00
  0.122000D+00  0.100000D+01
   p     1 1.00
  0.727000D+00  0.100000D+01
  
 14  0
   s     4 1.00
  0.130100D+02  0.196850D-01
  0.196200D+01  0.137977D+00
  0.444600D+00  0.478148D+00
  0.122000D+00  0.501240D+00
   s     1 1.00
  0.122000D+00  0.100000D+01
   p     1 1.00
  0.727000D+00  0.100000D+01
  
[MO]
 Sym= __1_A__
 Ene=   1.00000000000000     
 Spin= Alpha
 Occup=    1.00000000000000     
                     1  1.681175933516683E-004
                     2  0.998428833385391     
                     3 -1.011829202123393E-003
                     4  1.594191271991265E-003
                     5  6.582196661237732E-003
                     6  6.205054630155271E-003
                     7 -3.743706227396366E-003
                     8  1.241084623737096E-003
                     9 -9.177515049449721E-004
                    10  3.542570093146072E-004
                    11 -1.998716358620891E-004
                    12 -2.161548325673729E-003
                    13  2.741561827446276E-003
                    14 -1.046232932719058E-003
                    15 -5.742383048860448E-005
                    16 -5.059345642918986E-005
                    17 -4.208608619283534E-005
                    18  6.413134040681274E-005
                    19  2.028430018852718E-005
                    20 -2.617214935995607E-004
                    21  1.630687826768802E-004
                    22  2.363597719822594E-006
                    23  4.357594868827500E-005
                    24 -3.861226848596565E-004
                    25  5.495080148713611E-006
                    26 -9.431834296672807E-005
                    27 -2.404177517371595E-005
                    28 -1.232572468363987E-005
                    29  1.427620103811291E-005
                    30 -6.069352847943004E-005
                    31 -4.810779898529446E-005
                    32 -3.270717781205145E-004
                    33  4.017377671119077E-004
                    34  2.670281987897208E-004
                    35 -1.890051954066855E-004
                    36 -2.817943247051519E-003
                    37 -8.733174859010112E-006
                    38 -8.051443238280317E-005
                    39 -3.537003058171592E-005
                    40  2.385194354262949E-006
                    41  2.262004622763010E-004
                    42  5.158633146161348E-003
                    43  6.056902745462721E-004
                    44 -6.796216128238421E-004
                    45 -1.651450516334906E-004
                    46 -4.787280564930058E-006
                    47  4.950273621128795E-006
                    48  1.460252046625665E-004
                    49  3.067900191481381E-005
                    50  2.724880262323753E-004
                    51  2.697496481989262E-004
                    52 -2.216426062904814E-005
                    53 -7.539652534153150E-006
                    54 -3.082825179916939E-004
                    55  2.944376053263500E-006
                    56 -5.914631123262897E-005
                    57  6.674758669995109E-006
                    58  1.432409946520476E-005
                    59 -2.665051686286148E-006
                    60 -4.061349698860035E-005
                    61  3.671375524936822E-005
                    62 -4.512852329532370E-004
                    63 -1.796310203327838E-003
                    64  1.583195906611924E-005
                    65  1.449284290194994E-003
                    66  2.040900660645957E-004
                    67 -1.070877519881997E-004
                    68 -3.973144427006586E-004
                    69  5.754409190906943E-004
                    70  4.289997798915155E-005
                    71  2.973705177228931E-004
                    72 -1.415401809110678E-004
                    73 -2.489336584608198E-004
                    74 -1.289357624033909E-003
                    75 -4.158592396677674E-005
                    76 -2.262259853564359E-005
                    77  1.333257217009999E-005
                    78  6.254688990035665E-005
                    79 -7.593806281749893E-006
                    80  1.850004157496444E-004
                    81  5.067680892226818E-005
                    82 -2.753084944335044E-005
                    83 -5.018012057685756E-005
                    84  4.731747448877070E-005
                    85 -1.493786280663113E-005
                    86 -8.598545797748190E-005
                    87  1.557858261502036E-005
                    88 -8.474276017456709E-006
                    89  1.369579426867071E-005
                    90 -5.639264626780910E-005
                    91 -9.019598507349583E-006
                    92 -3.284926972940899E-004
                    93 -1.387592103820424E-003
                    94  1.262673460649603E-004
                    95  5.885488378166493E-004
                    96  2.562216586509782E-004
                    97 -1.398622254758299E-004
                    98  3.621295991414923E-004
                    99  4.751543638916428E-004
                   100  9.959421150522612E-005
                   101  3.359869324893197E-005
                   102 -9.400309971197413E-004
                   103 -3.139388394353905E-004
                   104  8.605175597300956E-004
                   105 -5.074013916310142E-005
                   106  3.338656605179869E-006
                   107 -1.665016224833633E-005
                   108  5.072815026169346E-005
                   109 -1.318669007755436E-005
                   110  6.871785323185926E-005
                   111 -5.103540477976600E-005
                   112  2.060277801406052E-005
                   113 -8.880647492704955E-005
                   114  5.560303539005908E-005
                   115  5.623227228267260E-006
                   116 -4.675757143455421E-005
                   117  1.677248619250048E-005
                   118  8.803197048412421E-006
                   119 -8.815047121680045E-006
                   120 -4.143034371117003E-005
                   121 -9.282259801359384E-006
                   122 -2.381896343212898E-004
                   123 -6.006119535320773E-004
                   124  7.894401025786362E-005
                   125  6.360324656560424E-004
                   126 -3.250695076487270E-004
                   127 -8.295923967235758E-005
                   128 -8.778120075271233E-006
                   129  3.163118469179880E-004
                   130 -1.897349741521127E-005
                   131  1.131240345356397E-004
                   132  1.254720104895435E-003
                   133  1.134454444820378E-004
                   134 -7.541753635682357E-005
                   135  1.637235257544180E-005
                   136 -1.943224609590306E-006
                   137 -4.770438679991911E-006
                   138 -8.296390363623206E-006
                   139  6.540325669928697E-006
                   140  1.177873883949896E-004
                   141  1.839596607046693E-004
                   142  6.648384928733003E-006
                   143 -2.454045284949268E-004
                   144 -7.645505019617475E-006
                   145 -1.382433920360465E-005
                   146 -2.024994677855183E-005
                   147  1.571046950397616E-006
                   148 -2.139889844340340E-006
                   149 -1.667078701791439E-006
                   150 -5.542641260582453E-005
                   151 -1.608486346463822E-006
                   152 -2.016453512971311E-004
                   153 -4.887943963619182E-004
                   154  4.137273519004096E-005
                   155  5.832884768558641E-004
                   156 -2.952479650425658E-004
                   157 -8.122075859824418E-005
                   158 -3.790628503738900E-006
                   159  1.440470623360618E-004
                   160 -3.465209900907920E-005
                   161 -3.497756382370812E-005
                   162  4.882845164764475E-004
                   163  1.491425538351890E-004
                   164  4.510755485444191E-004
                   165  5.279043988723360E-006
                   166  4.113578850762765E-006
                   167  4.989207822300871E-006
                   168  2.174756325217808E-006
                   169  1.033637413807294E-005
                   170  4.623303519071553E-005
                   171 -1.109744185833287E-004
                   172 -9.622571388462865E-006
                   173 -1.617460238172462E-004
                   174 -8.122651050270708E-006
                   175  2.105150812798048E-006
                   176 -1.574535366368947E-005
                   177  3.089289072183305E-006
                   178 -4.684290283428914E-006
                   179  1.354015957318010E-006
                   180 -3.751874106947255E-005
                   181 -4.324522025826665E-006
                   182 -1.412766698448090E-004
                   183 -4.337398429289042E-004
                   184  3.676248009873968E-005
                   185  1.980041461274727E-004
                   186 -3.236762273791546E-005
                   187 -8.996671292506153E-005
                   188 -1.382206659973809E-005
                   189  1.133287169378468E-004
                   190  1.477452672437926E-005
                   191  7.641484420876423E-005
                   192 -3.986846123028024E-004
                   193 -8.596276748916710E-005
                   194  4.303435123358869E-004
                   195 -5.778282462660077E-006
                   196  1.158761033736523E-006
                   197  1.330647408293660E-006
                   198  2.176028009925634E-006
                   199 -5.135186194617654E-007
                   200 -1.090798912840651E-004
                   201 -6.212059132375803E-005
                   202 -4.817482853596154E-006
                   203  4.735597648199332E-005
                   204  1.633711676405668E-005
                   205  1.301714968052183E-006
                   206  5.462924687534324E-006
                   207  1.845711936663267E-006
                   208  4.465764129835734E-006
                   209  3.816063474432144E-007
                   210 -5.979535719802851E-006
                   211 -2.962470993924875E-006
                   212 -4.451383893825845E-006
                   213 -2.954893796720210E-004
                   214  7.556190422081582E-005
                   215  1.688579608010891E-004
                   216  1.201421589356931E-004
                   217  5.897169078073862E-004
                   218 -1.263089955317018E-003
                   219  1.000515728053445E-004
                   220  2.146019215858943E-004
                   221 -2.354696129172732E-004
                   222 -2.863364941053704E-004
                   223 -5.934757240115965E-004
                   224 -6.356536845357506E-005
                   225  7.571954919594569E-006
                   226  4.056088180719451E-005
                   227 -2.302884591871433E-004
                   228 -5.122552861263334E-004
                   229 -4.747716064438437E-005
                   230  1.021676769218333E-005
                   231 -4.673980670005401E-005
                   232 -1.946615734423580E-005
                   233 -5.006339851864080E-004
                   234 -6.825904079445933E-007
                   235 -1.405452062983395E-006
                   236 -1.982126328701284E-006
                   237 -4.358526660978314E-005
                   238 -4.634127281279916E-004
                   239  1.056722342701710E-006
                   240 -2.598305013403365E-006
                   241  4.190709685497516E-006
                   242 -2.269210473271253E-005
                   243  1.205943045176055E-004
                   244  3.092230546175730E-005
                   245  8.529218679466879E-007
                   246 -2.746927623656500E-007
 Sym= __2_A__
 Ene=   2.00000000000000     
 Spin= Alpha
 Occup=    1.00000000000000     
                     1 -3.306531568120637E-005
                     2 -1.441336188182988E-004
                     3  2.218553092808486E-003
                     4  1.276552981847953E-005
                     5  1.197251620857317E-003
                     6  2.206895763508753E-003
                     7  2.402312620922921E-005
                     8 -2.114872812171937E-004
                     9 -1.355181336654363E-004
                    10  9.174981819117802E-005
                    11 -2.306821801639325E-005
                    12 -4.404811130661473E-006
                    13  4.622835898304897E-005
                    14  2.441858618647998E-005
                    15 -7.366796037265141E-005
                    16 -1.006552252493549E-006
                    17  1.392613003500906E-006
                    18  4.046660689073950E-005
                    19 -9.590585880832369E-006
                    20  1.357135580382772E-004
                    21  2.620946361606824E-005
                    22  2.606366386524757E-006
                    23  1.034932740653740E-004
                    24 -2.377091648180324E-005
                    25 -8.659445712196839E-006
                    26  1.375038376571696E-004
                    27 -4.729088493099206E-005
                    28 -4.063412354163352E-006
                    29 -4.294926346899257E-006
                    30  1.198321081069125E-004
                    31  3.125217783315634E-005
                    32   1.00091011065404     
                    33  8.950455606506475E-003
                    34  2.801825206771752E-003
                    35 -8.274021458518232E-003
                    36 -2.595508159740901E-003
                    37  5.744643940220680E-004
                    38  2.758757110133521E-005
                    39  7.762504738792644E-004
                    40 -2.542949336484634E-004
                    41 -4.374274521047142E-005
                    42  3.474203790881640E-003
                    43 -1.316898458355385E-004
                    44  3.166349568765432E-005
                    45  2.800598854821288E-004
                    46 -6.859752575878667E-006
                    47 -1.132009820591870E-006
                    48  4.235902379269300E-004
                    49 -2.554615741805115E-005
                    50 -1.057539249972745E-003
                    51  2.034285779392943E-005
                    52 -1.503777690083854E-006
                    53 -1.004950476658244E-004
                    54  4.673391640099993E-005
                    55  1.209193161521588E-006
                    56  3.111844881010895E-004
                    57 -9.462496294359576E-006
                    58 -2.791901447348132E-006
                    59 -3.180799777035937E-006
                    60  9.731284259509711E-005
                    61  1.469431511691676E-005
                    62  1.356612323915011E-002
                    63 -1.912143812600810E-003
                    64 -3.089257034163617E-004
                    65  3.159301576957360E-003
                    66 -8.419079106461684E-005
                    67  6.736972211969535E-005
                    68  1.980640101611411E-004
                    69  2.455986232131154E-005
                    70 -7.175158485101705E-007
                    71  5.687297289911115E-004
                    72  1.318904197804751E-004
                    73 -2.516954317848676E-005
                    74 -1.829216968734296E-003
                    75 -1.427007372413373E-005
                    76  1.977138510065967E-005
                    77  6.518264233693972E-006
                    78 -3.209518873161912E-005
                    79 -3.422044279483612E-006
                    80 -3.937616484081670E-004
                    81 -4.350278864969084E-004
                    82 -4.692352941298962E-006
                    83  7.459879333425386E-004
                    84 -1.616028318451923E-006
                    85  4.932331154076607E-005
                    86  1.135738280859298E-004
                    87 -4.538372286302681E-007
                    88 -1.747658254148554E-005
                    89 -6.394614614582640E-006
                    90 -3.091432484550471E-005
                    91  4.405128826445264E-006
                    92  1.513443843876013E-002
                    93 -1.909474143484239E-003
                    94 -3.065614719191860E-004
                    95  3.155589468164625E-003
                    96 -8.308679779899874E-005
                    97  6.233929341289327E-005
                    98 -1.836511838383873E-004
                    99  1.118483986111628E-005
                   100  1.638168823053592E-006
                   101 -5.716501126228522E-004
                   102  1.640363410898458E-004
                   103 -2.200543291735419E-005
                   104  1.838062452765447E-003
                   105 -1.246808204556720E-005
                   106 -2.026981982927845E-005
                   107 -6.490051501342669E-006
                   108 -3.234818609045312E-005
                   109 -3.276022780502901E-006
                   110 -3.984658571287801E-004
                   111  4.472713329038971E-004
                   112  2.633590794223046E-006
                   113  7.523395263774874E-004
                   114 -4.337197279773581E-006
                   115 -4.925711086181449E-005
                   116  1.134218033737669E-004
                   117  4.241279016973058E-007
                   118  1.552510974288551E-005
                   119  7.020716590773278E-006
                   120 -2.985265064662160E-005
                   121  4.343974692980608E-006
                   122 -9.460418968009125E-005
                   123 -6.773216715958845E-004
                   124  2.503749458669813E-004
                   125 -2.998862588755815E-004
                   126 -2.458474294507093E-004
                   127  1.344568932580314E-005
                   128 -3.392928965224353E-005
                   129  6.029983010267789E-004
                   130 -5.016889276096437E-007
                   131  1.769546393573127E-005
                   132  5.833607790675121E-004
                   133  8.107660081140755E-006
                   134  3.146574883050243E-004
                   135 -5.197498103779916E-007
                   136  4.214311865235232E-005
                   137  2.562377507783575E-007
                   138 -3.285915899336612E-005
                   139 -6.120683465764732E-007
                   140  1.857839475457991E-004
                   141 -2.327844375282678E-004
                   142  1.668734284098296E-006
                   143 -2.616774852434470E-004
                   144 -3.311830094489952E-006
                   145 -1.955483536522217E-005
                   146  1.632291902061315E-005
                   147  4.178090141969909E-008
                   148 -1.567158339992839E-005
                   149 -1.837189554482342E-006
                   150 -2.697822714541571E-005
                   151 -7.064646979487114E-007
                   152 -5.303004378271227E-005
                   153 -6.856169349707706E-004
                   154  2.492593695102247E-004
                   155 -2.923656544806099E-004
                   156 -2.406157715609301E-004
                   157  1.036874839401069E-005
                   158  3.404355155606499E-005
                   159  6.010106061173802E-004
                   160  1.457285936034371E-008