[Molden Format]
[Atoms] AU
  N     1    7    -4.4519150800    0.1645695100   -0.0000004400        
  C     2    6    -1.7695092000   -0.0145096000   -0.0000001700        
  C     3    6    -0.4270927200   -0.0061402300   -2.2691546100        
  C     4    6    -0.4270931100   -0.0061391100    2.2691544900        
  C     5    6     2.1889955900   -0.0004823800   -2.2566388900        
  C     6    6     2.1889952100   -0.0004812700    2.2566392100        
  C     7    6     3.5149715000    0.0022090000    0.0000002700        
  H     8    1    -5.4565260000   -1.0366484800   -2.1323980000        
  H     9    1    -5.1855380900   -0.7126258900    1.5571951400        
  H    10    1    -1.4305344500   -0.0005073500   -4.0318143700        
  H    11    1    -1.4305351200   -0.0005053700    4.0318140800        
  H    12    1     3.1914120400   -0.0010699000   -4.0209976100        
  H    13    1     3.1914113700   -0.0010679200    4.0209980900        
  H    14    1     5.5428332300    0.0050250700    0.0000004400        
[5D]
[7F]
[GTO]
  1  0
   s    12 1.00
  0.114200D+05  0.172695D-04
  0.171200D+04  0.134411D-03
  0.389300D+03  0.694561D-03
  0.110000D+03  0.278531D-02
  0.355700D+02  0.863457D-02
  0.125400D+02  0.199805D-01
  0.464400D+01  0.262908D-01
  0.129300D+01 -0.243845D-01
  0.511800D+00 -0.924934D-01
  0.178700D+00 -0.339683D+00
  0.246240D-01  0.345111D+00
  0.112530D-01  0.752750D+00
   s    10 1.00
  0.114200D+05  0.523000D-03
  0.171200D+04  0.404500D-02
  0.389300D+03  0.207750D-01
  0.110000D+03  0.807269D-01
  0.355700D+02  0.233074D+00
  0.125400D+02  0.433501D+00
  0.464400D+01  0.347472D+00
  0.129300D+01  0.412620D-01
  0.511800D+00 -0.850799D-02
  0.178700D+00  0.238400D-02
   s    10 1.00
  0.114200D+05 -0.115000D-03
  0.171200D+04 -0.895000D-03
  0.389300D+03 -0.462400D-02
  0.110000D+03 -0.185280D-01
  0.355700D+02 -0.573390D-01
  0.125400D+02 -0.132076D+00
  0.464400D+01 -0.172510D+00
  0.129300D+01  0.151814D+00
  0.511800D+00  0.599944D+00
  0.178700D+00  0.387462D+00
   s     1 1.00
  0.129300D+01  0.100000D+01
   s     1 1.00
  0.178700D+00  0.100000D+01
   p     5 1.00
  0.266300D+02  0.146700D-01
  0.594800D+01  0.917640D-01
  0.174200D+01  0.298683D+00
  0.555000D+00  0.498487D+00
  0.172500D+00  0.337023D+00
   p     1 1.00
  0.174200D+01  0.100000D+01
   p     1 1.00
  0.555000D+00  0.100000D+01
   d     1 1.00
  0.165400D+01  0.100000D+01
   d     1 1.00
  0.469000D+00  0.100000D+01
   f     1 1.00
  0.109300D+01  0.100000D+01
  
  2  0
   s    10 1.00
  0.823600D+04  0.531000D-03
  0.123500D+04  0.410800D-02
  0.280800D+03  0.210870D-01
  0.792700D+02  0.818530D-01
  0.255900D+02  0.234817D+00
  0.899700D+01  0.434401D+00
  0.331900D+01  0.346129D+00
  0.905900D+00  0.393780D-01
  0.364300D+00 -0.898300D-02
  0.128500D+00  0.238500D-02
   s    10 1.00
  0.823600D+04 -0.113000D-03
  0.123500D+04 -0.878000D-03
  0.280800D+03 -0.454000D-02
  0.792700D+02 -0.181330D-01
  0.255900D+02 -0.557600D-01
  0.899700D+01 -0.126895D+00
  0.331900D+01 -0.170352D+00
  0.905900D+00  0.140382D+00
  0.364300D+00  0.598684D+00
  0.128500D+00  0.395389D+00
   s     1 1.00
  0.905900D+00  0.100000D+01
   s     1 1.00
  0.364300D+00  0.100000D+01
   p     5 1.00
  0.187100D+02  0.140310D-01
  0.413300D+01  0.868660D-01
  0.120000D+01  0.290216D+00
  0.382700D+00  0.501008D+00
  0.120900D+00  0.343406D+00
   p     1 1.00
  0.382700D+00  0.100000D+01
   p     1 1.00
  0.120900D+00  0.100000D+01
   d     1 1.00
  0.109700D+01  0.100000D+01
   d     1 1.00
  0.318000D+00  0.100000D+01
   f     1 1.00
  0.761000D+00  0.100000D+01
  
  3  0
   s    10 1.00
  0.823600D+04  0.531000D-03
  0.123500D+04  0.410800D-02
  0.280800D+03  0.210870D-01
  0.792700D+02  0.818530D-01
  0.255900D+02  0.234817D+00
  0.899700D+01  0.434401D+00
  0.331900D+01  0.346129D+00
  0.905900D+00  0.393780D-01
  0.364300D+00 -0.898300D-02
  0.128500D+00  0.238500D-02
   s    10 1.00
  0.823600D+04 -0.113000D-03
  0.123500D+04 -0.878000D-03
  0.280800D+03 -0.454000D-02
  0.792700D+02 -0.181330D-01
  0.255900D+02 -0.557600D-01
  0.899700D+01 -0.126895D+00
  0.331900D+01 -0.170352D+00
  0.905900D+00  0.140382D+00
  0.364300D+00  0.598684D+00
  0.128500D+00  0.395389D+00
   s     1 1.00
  0.905900D+00  0.100000D+01
   s     1 1.00
  0.364300D+00  0.100000D+01
   p     5 1.00
  0.187100D+02  0.140310D-01
  0.413300D+01  0.868660D-01
  0.120000D+01  0.290216D+00
  0.382700D+00  0.501008D+00
  0.120900D+00  0.343406D+00
   p     1 1.00
  0.382700D+00  0.100000D+01
   p     1 1.00
  0.120900D+00  0.100000D+01
   d     1 1.00
  0.109700D+01  0.100000D+01
   d     1 1.00
  0.318000D+00  0.100000D+01
   f     1 1.00
  0.761000D+00  0.100000D+01
  
  4  0
   s    10 1.00
  0.823600D+04  0.531000D-03
  0.123500D+04  0.410800D-02
  0.280800D+03  0.210870D-01
  0.792700D+02  0.818530D-01
  0.255900D+02  0.234817D+00
  0.899700D+01  0.434401D+00
  0.331900D+01  0.346129D+00
  0.905900D+00  0.393780D-01
  0.364300D+00 -0.898300D-02
  0.128500D+00  0.238500D-02
   s    10 1.00
  0.823600D+04 -0.113000D-03
  0.123500D+04 -0.878000D-03
  0.280800D+03 -0.454000D-02
  0.792700D+02 -0.181330D-01
  0.255900D+02 -0.557600D-01
  0.899700D+01 -0.126895D+00
  0.331900D+01 -0.170352D+00
  0.905900D+00  0.140382D+00
  0.364300D+00  0.598684D+00
  0.128500D+00  0.395389D+00
   s     1 1.00
  0.905900D+00  0.100000D+01
   s     1 1.00
  0.364300D+00  0.100000D+01
   p     5 1.00
  0.187100D+02  0.140310D-01
  0.413300D+01  0.868660D-01
  0.120000D+01  0.290216D+00
  0.382700D+00  0.501008D+00
  0.120900D+00  0.343406D+00
   p     1 1.00
  0.382700D+00  0.100000D+01
   p     1 1.00
  0.120900D+00  0.100000D+01
   d     1 1.00
  0.109700D+01  0.100000D+01
   d     1 1.00
  0.318000D+00  0.100000D+01
   f     1 1.00
  0.761000D+00  0.100000D+01
  
  5  0
   s    10 1.00
  0.823600D+04  0.531000D-03
  0.123500D+04  0.410800D-02
  0.280800D+03  0.210870D-01
  0.792700D+02  0.818530D-01
  0.255900D+02  0.234817D+00
  0.899700D+01  0.434401D+00
  0.331900D+01  0.346129D+00
  0.905900D+00  0.393780D-01
  0.364300D+00 -0.898300D-02
  0.128500D+00  0.238500D-02
   s    10 1.00
  0.823600D+04 -0.113000D-03
  0.123500D+04 -0.878000D-03
  0.280800D+03 -0.454000D-02
  0.792700D+02 -0.181330D-01
  0.255900D+02 -0.557600D-01
  0.899700D+01 -0.126895D+00
  0.331900D+01 -0.170352D+00
  0.905900D+00  0.140382D+00
  0.364300D+00  0.598684D+00
  0.128500D+00  0.395389D+00
   s     1 1.00
  0.905900D+00  0.100000D+01
   s     1 1.00
  0.364300D+00  0.100000D+01
   p     5 1.00
  0.187100D+02  0.140310D-01
  0.413300D+01  0.868660D-01
  0.120000D+01  0.290216D+00
  0.382700D+00  0.501008D+00
  0.120900D+00  0.343406D+00
   p     1 1.00
  0.382700D+00  0.100000D+01
   p     1 1.00
  0.120900D+00  0.100000D+01
   d     1 1.00
  0.109700D+01  0.100000D+01
   d     1 1.00
  0.318000D+00  0.100000D+01
   f     1 1.00
  0.761000D+00  0.100000D+01
  
  6  0
   s    10 1.00
  0.823600D+04  0.531000D-03
  0.123500D+04  0.410800D-02
  0.280800D+03  0.210870D-01
  0.792700D+02  0.818530D-01
  0.255900D+02  0.234817D+00
  0.899700D+01  0.434401D+00
  0.331900D+01  0.346129D+00
  0.905900D+00  0.393780D-01
  0.364300D+00 -0.898300D-02
  0.128500D+00  0.238500D-02
   s    10 1.00
  0.823600D+04 -0.113000D-03
  0.123500D+04 -0.878000D-03
  0.280800D+03 -0.454000D-02
  0.792700D+02 -0.181330D-01
  0.255900D+02 -0.557600D-01
  0.899700D+01 -0.126895D+00
  0.331900D+01 -0.170352D+00
  0.905900D+00  0.140382D+00
  0.364300D+00  0.598684D+00
  0.128500D+00  0.395389D+00
   s     1 1.00
  0.905900D+00  0.100000D+01
   s     1 1.00
  0.364300D+00  0.100000D+01
   p     5 1.00
  0.187100D+02  0.140310D-01
  0.413300D+01  0.868660D-01
  0.120000D+01  0.290216D+00
  0.382700D+00  0.501008D+00
  0.120900D+00  0.343406D+00
   p     1 1.00
  0.382700D+00  0.100000D+01
   p     1 1.00
  0.120900D+00  0.100000D+01
   d     1 1.00
  0.109700D+01  0.100000D+01
   d     1 1.00
  0.318000D+00  0.100000D+01
   f     1 1.00
  0.761000D+00  0.100000D+01
  
  7  0
   s    10 1.00
  0.823600D+04  0.531000D-03
  0.123500D+04  0.410800D-02
  0.280800D+03  0.210870D-01
  0.792700D+02  0.818530D-01
  0.255900D+02  0.234817D+00
  0.899700D+01  0.434401D+00
  0.331900D+01  0.346129D+00
  0.905900D+00  0.393780D-01
  0.364300D+00 -0.898300D-02
  0.128500D+00  0.238500D-02
   s    10 1.00
  0.823600D+04 -0.113000D-03
  0.123500D+04 -0.878000D-03
  0.280800D+03 -0.454000D-02
  0.792700D+02 -0.181330D-01
  0.255900D+02 -0.557600D-01
  0.899700D+01 -0.126895D+00
  0.331900D+01 -0.170352D+00
  0.905900D+00  0.140382D+00
  0.364300D+00  0.598684D+00
  0.128500D+00  0.395389D+00
   s     1 1.00
  0.905900D+00  0.100000D+01
   s     1 1.00
  0.364300D+00  0.100000D+01
   p     5 1.00
  0.187100D+02  0.140310D-01
  0.413300D+01  0.868660D-01
  0.120000D+01  0.290216D+00
  0.382700D+00  0.501008D+00
  0.120900D+00  0.343406D+00
   p     1 1.00
  0.382700D+00  0.100000D+01
   p     1 1.00
  0.120900D+00  0.100000D+01
   d     1 1.00
  0.109700D+01  0.100000D+01
   d     1 1.00
  0.318000D+00  0.100000D+01
   f     1 1.00
  0.761000D+00  0.100000D+01
  
  8  0
   s     4 1.00
  0.130100D+02  0.196850D-01
  0.196200D+01  0.137977D+00
  0.444600D+00  0.478148D+00
  0.122000D+00  0.501240D+00
   s     1 1.00
  0.122000D+00  0.100000D+01
   p     1 1.00
  0.727000D+00  0.100000D+01
  
  9  0
   s     4 1.00
  0.130100D+02  0.196850D-01
  0.196200D+01  0.137977D+00
  0.444600D+00  0.478148D+00
  0.122000D+00  0.501240D+00
   s     1 1.00
  0.122000D+00  0.100000D+01
   p     1 1.00
  0.727000D+00  0.100000D+01
  
 10  0
   s     4 1.00
  0.130100D+02  0.196850D-01
  0.196200D+01  0.137977D+00
  0.444600D+00  0.478148D+00
  0.122000D+00  0.501240D+00
   s     1 1.00
  0.122000D+00  0.100000D+01
   p     1 1.00
  0.727000D+00  0.100000D+01
  
 11  0
   s     4 1.00
  0.130100D+02  0.196850D-01
  0.196200D+01  0.137977D+00
  0.444600D+00  0.478148D+00
  0.122000D+00  0.501240D+00
   s     1 1.00
  0.122000D+00  0.100000D+01
   p     1 1.00
  0.727000D+00  0.100000D+01
  
 12  0
   s     4 1.00
  0.130100D+02  0.196850D-01
  0.196200D+01  0.137977D+00
  0.444600D+00  0.478148D+00
  0.122000D+00  0.501240D+00
   s     1 1.00
  0.122000D+00  0.100000D+01
   p     1 1.00
  0.727000D+00  0.100000D+01
  
 13  0
   s     4 1.00
  0.130100D+02  0.196850D-01
  0.196200D+01  0.137977D+00
  0.444600D+00  0.478148D+00
  0.122000D+00  0.501240D+00
   s     1 1.00
  0.122000D+00  0.100000D+01
   p     1 1.00
  0.727000D+00  0.100000D+01
  
 14  0
   s     4 1.00
  0.130100D+02  0.196850D-01
  0.196200D+01  0.137977D+00
  0.444600D+00  0.478148D+00
  0.122000D+00  0.501240D+00
   s     1 1.00
  0.122000D+00  0.100000D+01
   p     1 1.00
  0.727000D+00  0.100000D+01
  
[MO]
 Sym= __1_a__
 Ene=  0.000000000000000E+000
 Spin= Alpha
 Occup=    2.00000000000000     
                     1  1.681175933516680E-004
                     2  0.998428833385391     
                     3 -1.011829202123390E-003
                     4  1.594191271991270E-003
                     5  6.582196661237730E-003
                     6  6.205054630155270E-003
                     7 -3.743706227396370E-003
                     8  1.241084623737100E-003
                     9 -9.177515049449720E-004
                    10  3.542570093146070E-004
                    11 -1.998716358620890E-004
                    12 -2.161548325673730E-003
                    13  2.741561827446280E-003
                    14 -1.046232932719060E-003
                    15 -5.742383048860441E-005
                    16 -5.059345642918990E-005
                    17 -4.208608619283530E-005
                    18  6.413134040681280E-005
                    19  2.028430018852720E-005
                    20 -2.617214935995605E-004
                    21  1.630687826768800E-004
                    22  2.363597719822590E-006
                    23  4.357594868827500E-005
                    24 -3.861226848596560E-004
                    25  5.495080148713613E-006
                    26 -9.431834296672821E-005
                    27 -2.404177517371598E-005
                    28 -1.232572468363988E-005
                    29  1.427620103811290E-005
                    30 -6.069352847942997E-005
                    31 -4.810779898529449E-005
                    32 -3.270717781205140E-004
                    33  4.017377671119080E-004
                    34  2.670281987897210E-004
                    35 -1.890051954066850E-004
                    36 -2.817943247051520E-003
                    37 -8.733174859010110E-006
                    38 -8.051443238280319E-005
                    39 -3.537003058171590E-005
                    40  2.385194354262950E-006
                    41  2.262004622763010E-004
                    42  5.158633146161350E-003
                    43  6.056902745462720E-004
                    44 -6.796216128238420E-004
                    45 -1.651450516334905E-004
                    46 -4.787280564930060E-006
                    47  4.950273621128800E-006
                    48  1.460252046625666E-004
                    49  3.067900191481380E-005
                    50  2.724880262323754E-004
                    51  2.697496481989260E-004
                    52 -2.216426062904810E-005
                    53 -7.539652534153160E-006
                    54 -3.082825179916940E-004
                    55  2.944376053263511E-006
                    56 -5.914631123262894E-005
                    57  6.674758669995129E-006
                    58  1.432409946520476E-005
                    59 -2.665051686286150E-006
                    60 -4.061349698860034E-005
                    61  3.671375524936824E-005
                    62 -4.512852329532370E-004
                    63 -1.796310203327840E-003
                    64  1.583195906611920E-005
                    65  1.449284290194990E-003
                    66  2.040900660645960E-004
                    67 -1.070877519882000E-004
                    68 -3.973144427006590E-004
                    69  5.754409190906940E-004
                    70  4.289997798915150E-005
                    71  2.973705177228930E-004
                    72 -1.415401809110680E-004
                    73 -2.489336584608200E-004
                    74 -1.289357624033910E-003
                    75 -4.158592396677663E-005
                    76 -2.262259853564360E-005
                    77  1.333257217010000E-005
                    78  6.254688990035660E-005
                    79 -7.593806281749890E-006
                    80  1.850004157496442E-004
                    81  5.067680892226820E-005
                    82 -2.753084944335040E-005
                    83 -5.018012057685760E-005
                    84  4.731747448877070E-005
                    85 -1.493786280663112E-005
                    86 -8.598545797748190E-005
                    87  1.557858261502036E-005
                    88 -8.474276017456701E-006
                    89  1.369579426867070E-005
                    90 -5.639264626780908E-005
                    91 -9.019598507349588E-006
                    92 -3.284926972940900E-004
                    93 -1.387592103820420E-003
                    94  1.262673460649600E-004
                    95  5.885488378166490E-004
                    96  2.562216586509780E-004
                    97 -1.398622254758300E-004
                    98  3.621295991414920E-004
                    99  4.751543638916430E-004
                   100  9.959421150522610E-005
                   101  3.359869324893200E-005
                   102 -9.400309971197410E-004
                   103 -3.139388394353900E-004
                   104  8.605175597300960E-004
                   105 -5.074013916310128E-005
                   106  3.338656605179870E-006
                   107 -1.665016224833630E-005
                   108  5.072815026169340E-005
                   109 -1.318669007755440E-005
                   110  6.871785323185935E-005
                   111 -5.103540477976600E-005
                   112  2.060277801406050E-005
                   113 -8.880647492704959E-005
                   114  5.560303539005910E-005
                   115  5.623227228267262E-006
                   116 -4.675757143455423E-005
                   117  1.677248619250046E-005
                   118  8.803197048412420E-006
                   119 -8.815047121680050E-006
                   120 -4.143034371116998E-005
                   121 -9.282259801359371E-006
                   122 -2.381896343212900E-004
                   123 -6.006119535320770E-004
                   124  7.894401025786360E-005
                   125  6.360324656560420E-004
                   126 -3.250695076487270E-004
                   127 -8.295923967235761E-005
                   128 -8.778120075271230E-006
                   129  3.163118469179880E-004
                   130 -1.897349741521130E-005
                   131  1.131240345356400E-004
                   132  1.254720104895430E-003
                   133  1.134454444820380E-004
                   134 -7.541753635682361E-005
                   135  1.637235257544179E-005
                   136 -1.943224609590310E-006
                   137 -4.770438679991910E-006
                   138 -8.296390363623199E-006
                   139  6.540325669928700E-006
                   140  1.177873883949895E-004
                   141  1.839596607046690E-004
                   142  6.648384928733000E-006
                   143 -2.454045284949260E-004
                   144 -7.645505019617470E-006
                   145 -1.382433920360465E-005
                   146 -2.024994677855180E-005
                   147  1.571046950397616E-006
                   148 -2.139889844340340E-006
                   149 -1.667078701791440E-006
                   150 -5.542641260582461E-005
                   151 -1.608486346463821E-006
                   152 -2.016453512971310E-004
                   153 -4.887943963619180E-004
                   154  4.137273519004100E-005
                   155  5.832884768558640E-004
                   156 -2.952479650425660E-004
                   157 -8.122075859824420E-005
                   158 -3.790628503738900E-006
                   159  1.440470623360620E-004
                   160 -3.465209900907920E-005
                   161 -3.497756382370810E-005
                   162  4.882845164764481E-004
                   163  1.491425538351890E-004
                   164  4.510755485444190E-004
                   165  5.279043988723346E-006
                   166  4.113578850762770E-006
                   167  4.989207822300870E-006
                   168  2.174756325217800E-006
                   169  1.033637413807290E-005
                   170  4.623303519071543E-005
                   171 -1.109744185833290E-004
                   172 -9.622571388462859E-006
                   173 -1.617460238172462E-004
                   174 -8.122651050270709E-006
                   175  2.105150812798049E-006
                   176 -1.574535366368948E-005
                   177  3.089289072183303E-006
                   178 -4.684290283428920E-006
                   179  1.354015957318010E-006
                   180 -3.751874106947248E-005
                   181 -4.324522025826666E-006
                   182 -1.412766698448090E-004
                   183 -4.337398429289040E-004
                   184  3.676248009873970E-005
                   185  1.980041461274730E-004
                   186 -3.236762273791550E-005
                   187 -8.996671292506150E-005
                   188 -1.382206659973810E-005
                   189  1.133287169378470E-004
                   190  1.477452672437930E-005
                   191  7.641484420876421E-005
                   192 -3.986846123028020E-004
                   193 -8.596276748916710E-005
                   194  4.303435123358870E-004
                   195 -5.778282462660060E-006
                   196  1.158761033736520E-006
                   197  1.330647408293660E-006
                   198  2.176028009925640E-006
                   199 -5.135186194617650E-007
                   200 -1.090798912840653E-004
                   201 -6.212059132375801E-005
                   202 -4.817482853596150E-006
                   203  4.735597648199340E-005
                   204  1.633711676405670E-005
                   205  1.301714968052182E-006
                   206  5.462924687534325E-006
                   207  1.845711936663266E-006
                   208  4.465764129835740E-006
                   209  3.816063474432140E-007
                   210 -5.979535719802855E-006
                   211 -2.962470993924876E-006
                   212 -4.451383893825840E-006
                   213 -2.954893796720210E-004
                   214  7.556190422081579E-005
                   215  1.688579608010890E-004
                   216  1.201421589356930E-004
                   217  5.897169078073860E-004
                   218 -1.263089955317020E-003
                   219  1.000515728053450E-004
                   220  2.146019215858940E-004
                   221 -2.354696129172730E-004
                   222 -2.863364941053700E-004
                   223 -5.934757240115970E-004
                   224 -6.356536845357510E-005
                   225  7.571954919594570E-006
                   226  4.056088180719450E-005
                   227 -2.302884591871430E-004
                   228 -5.122552861263330E-004
                   229 -4.747716064438440E-005
                   230  1.021676769218330E-005
                   231 -4.673980670005400E-005
                   232 -1.946615734423580E-005
                   233 -5.006339851864080E-004
                   234 -6.825904079445930E-007
                   235 -1.405452062983390E-006
                   236 -1.982126328701280E-006
                   237 -4.358526660978310E-005
                   238 -4.634127281279920E-004
                   239  1.056722342701710E-006
                   240 -2.598305013403370E-006
                   241  4.190709685497520E-006
                   242 -2.269210473271250E-005
                   243  1.205943045176050E-004
                   244  3.092230546175730E-005
                   245  8.529218679466880E-007
                   246 -2.746927623656500E-007
 Sym= __2_a__
 Ene=  0.000000000000000E+000
 Spin= Alpha
 Occup=    2.00000000000000     
                     1 -3.306531568120640E-005
                     2 -1.441336188182990E-004
                     3  2.218553092808490E-003
                     4  1.276552981847950E-005
                     5  1.197251620857320E-003
                     6  2.206895763508750E-003
                     7  2.402312620922920E-005
                     8 -2.114872812171940E-004
                     9 -1.355181336654360E-004
                    10  9.174981819117800E-005
                    11 -2.306821801639320E-005
                    12 -4.404811130661470E-006
                    13  4.622835898304900E-005
                    14  2.441858618648000E-005
                    15 -7.366796037265144E-005
                    16 -1.006552252493550E-006
                    17  1.392613003500910E-006
                    18  4.046660689073960E-005
                    19 -9.590585880832371E-006
                    20  1.357135580382771E-004
                    21  2.620946361606820E-005
                    22  2.606366386524760E-006
                    23  1.034932740653740E-004
                    24 -2.377091648180320E-005
                    25 -8.659445712196844E-006
                    26  1.375038376571693E-004
                    27 -4.729088493099205E-005
                    28 -4.063412354163360E-006
                    29 -4.294926346899260E-006
                    30  1.198321081069124E-004
                    31  3.125217783315636E-005
                    32   1.00091011065404     
                    33  8.950455606506470E-003
                    34  2.801825206771750E-003
                    35 -8.274021458518230E-003
                    36 -2.595508159740900E-003
                    37  5.744643940220680E-004
                    38  2.758757110133520E-005
                    39  7.762504738792640E-004
                    40 -2.542949336484630E-004
                    41 -4.374274521047140E-005
                    42  3.474203790881640E-003
                    43 -1.316898458355390E-004
                    44  3.166349568765430E-005
                    45  2.800598854821287E-004
                    46 -6.859752575878670E-006
                    47 -1.132009820591870E-006
                    48  4.235902379269300E-004
                    49 -2.554615741805120E-005
                    50 -1.057539249972746E-003
                    51  2.034285779392940E-005
                    52 -1.503777690083850E-006
                    53 -1.004950476658244E-004
                    54  4.673391640099990E-005
                    55  1.209193161521589E-006
                    56  3.111844881010894E-004
                    57 -9.462496294359587E-006
                    58 -2.791901447348140E-006
                    59 -3.180799777035940E-006
                    60  9.731284259509716E-005
                    61  1.469431511691674E-005
                    62  1.356612323915010E-002
                    63 -1.912143812600810E-003
                    64 -3.089257034163620E-004
                    65  3.159301576957360E-003
                    66 -8.419079106461680E-005
                    67  6.736972211969540E-005
                    68  1.980640101611410E-004
                    69  2.455986232131150E-005
                    70 -7.175158485101700E-007
                    71  5.687297289911120E-004
                    72  1.318904197804750E-004
                    73 -2.516954317848680E-005
                    74 -1.829216968734300E-003
                    75 -1.427007372413374E-005
                    76  1.977138510065970E-005
                    77  6.518264233693970E-006
                    78 -3.209518873161920E-005
                    79 -3.422044279483610E-006
                    80 -3.937616484081670E-004
                    81 -4.350278864969080E-004
                    82 -4.692352941298960E-006
                    83  7.459879333425380E-004
                    84 -1.616028318451920E-006
                    85  4.932331154076605E-005
                    86  1.135738280859298E-004
                    87 -4.538372286302681E-007
                    88 -1.747658254148554E-005
                    89 -6.394614614582640E-006
                    90 -3.091432484550466E-005
                    91  4.405128826445263E-006
                    92  1.513443843876010E-002
                    93 -1.909474143484240E-003
                    94 -3.065614719191860E-004
                    95  3.155589468164620E-003
                    96 -8.308679779899870E-005
                    97  6.233929341289329E-005
                    98 -1.836511838383870E-004
                    99  1.118483986111630E-005
                   100  1.638168823053590E-006
                   101 -5.716501126228520E-004
                   102  1.640363410898460E-004
                   103 -2.200543291735420E-005
                   104  1.838062452765450E-003
                   105 -1.246808204556719E-005
                   106 -2.026981982927850E-005
                   107 -6.490051501342670E-006
                   108 -3.234818609045320E-005
                   109 -3.276022780502900E-006
                   110 -3.984658571287798E-004
                   111  4.472713329038970E-004
                   112  2.633590794223050E-006
                   113  7.523395263774880E-004
                   114 -4.337197279773580E-006
                   115 -4.925711086181449E-005
                   116  1.134218033737670E-004
                   117  4.241279016973056E-007
                   118  1.552510974288550E-005
                   119  7.020716590773280E-006
                   120 -2.985265064662160E-005
                   121  4.343974692980610E-006
                   122 -9.460418968009120E-005
                   123 -6.773216715958850E-004
                   124  2.503749458669810E-004
                   125 -2.998862588755810E-004
                   126 -2.458474294507090E-004
                   127  1.344568932580310E-005
                   128 -3.392928965224350E-005
                   129  6.029983010267790E-004
                   130 -5.016889276096440E-007
                   131  1.769546393573130E-005
                   132  5.833607790675120E-004
                   133  8.107660081140750E-006
                   134  3.146574883050240E-004
                   135 -5.197498103779908E-007
                   136  4.214311865235230E-005
                   137  2.562377507783570E-007
                   138 -3.285915899336620E-005
                   139 -6.120683465764730E-007
                   140  1.857839475457990E-004
                   141 -2.327844375282680E-004
                   142  1.668734284098300E-006
                   143 -2.616774852434480E-004
                   144 -3.311830094489950E-006
                   145 -1.955483536522217E-005
                   146  1.632291902061312E-005
                   147  4.178090141969910E-008
                   148 -1.567158339992838E-005
                   149 -1.837189554482340E-006
                   150 -2.697822714541568E-005
                   151 -7.064646979487095E-007
                   152 -5.303004378271230E-005
                   153 -6.856169349707709E-004
                   154  2.492593695102250E-004
                   155 -2.923656544806100E-004
                   156 -2.406157715609300E-004
                   157  1.036874839401070E-005
                   158  3.404355155606500E-005
                   159  6.010106061173800E-004
                   160  1.457285936034370E-008