===========================================================
===                   runc                              ===
===           version 7.0.2 , April 2021              ===
===          requires COLUMBUS version Col_7.0.2        ===
===                                                     ===
===   written by: Thomas Mueller                        ===
===   gradient ext. by: Michal Dallos                   ===
===               University of Vienna                  ===
===   maintained by: Felix Plasser                      ===
===               Loughborough University               ===
===========================================================


coremem. (seq.): 200000 MB,  coremem. (par.): 19000 MB
Vdisk size: 0 DP
Reading job control file control.run ... 
 ****** This is an 2c-QDPT MRCISD calculation ****** 
 model space size=4:0:4
SMOLCAS=/home-4/yshen57@jhu.edu/Software/Chemistry/Columbus-7.0.2_OpenMolcas-18.09-col/OpenMolcas/build
Found serial Molcas Installation at /home-4/yshen57@jhu.edu/Software/Chemistry/Columbus-7.0.2_OpenMolcas-18.09-col/OpenMolcas/build
  done 
INFO: keywords nadcoupl and seward are supported for DCI mode only!
seward specified, using also alaska
Creating various directories ... 
 done 
SMOLCAS=/home-4/yshen57@jhu.edu/Software/Chemistry/Columbus-7.0.2_OpenMolcas-18.09-col/OpenMolcas/build
PMOLCAS=
Checking for illegal keywords and keyword combinations ... done 

 Nonadiabatic coupling term calculation type: DCI+DCSF
  States involved in calcualtion:
   DRT1,state1;  DRT1,state2
   DRT1,state1;  DRT1,state3
   DRT1,state1;  DRT1,state4
   DRT1,state2;  DRT1,state3
   DRT1,state2;  DRT1,state4
   DRT1,state3;  DRT1,state4
   DRT2,state1;  DRT2,state2
   DRT2,state1;  DRT2,state3
   DRT2,state1;  DRT2,state4
   DRT2,state2;  DRT2,state3
   DRT2,state2;  DRT2,state4
   DRT2,state3;  DRT2,state4

Additional gradients computed:
   DRT1,state1
   DRT1,state2
   DRT1,state3
   DRT1,state4
   DRT2,state1
   DRT2,state2
   DRT2,state3
   DRT2,state4

Checking for complete set of input files ... 
mcscf calculation without preceeding scf calculation 
will use 
 /scratch/users/yshen57@jhu.edu/Molcas/fast/1.2/mrci/mocoef as starting MOs 
Performing coupled non-rel. SO-CI calculation, nrroots: 4 0 4
starting cidrt.x   -m 200000 < cidrtin > temp at Wed May  4 11:47:21 EDT 2022

 -------------------- cidrt.x ------------------------
 spatial symmetry:  
 total number of configurations          0
 number of reference configurations     0
 --------------------------------------------------- 
 Preparing SO cidrtin files for 1 symmetries
cat ../cidrtin | sed -e 's/^.*input the molecular spatial symmetry/1 \/ molsym/' > cidrtin.so_A 
calling cidrt.x -m 200000 < cidrtin.so_A > cidrtls.soci_A ...
Checking the DRTs for consistency ...
calling reindex.x -i 1 -m 200000  ...
done

 ++++++++++++++++++ input file generation +++++++++++++ 
 runc start: Wed May  4 11:47:38 EDT 2022
 
  runc start: Wed May  4 11:47:38 EDT 2022
 
 starting unik.gets.x > unikls at Wed May  4 11:47:38 EDT 2022

 -------------------- unik.gets.x ------------------------
 --------------------------------------------------- 
 ++++++++++++++++++++ ao integral calculation ++++++++++++++++
starting pymolcas molcas.input.seward > molcas.output.seward  at Wed May  4 11:47:38 EDT 2022

Generating link ln -s ./molcas.OrdInt ORDINT 
 -------------------- seward ------------------------
      Basis set label: N.ANILINE.........
      Basis set label: C.ANILINE.........
      Basis set label: H.ANILINE.........
  Nuclear Coordinates in                   atomic units                                   Angstrom 
     Center  Label                x              y              z                     x              y              z
        1      N1              -0.011615      -4.306723       0.000000             -0.006146      -2.279020       0.000000
        2      C2               0.012426      -1.788584       0.000000              0.006576      -0.946478       0.000000
        3      C3              -2.328631      -0.416109       0.000000             -1.232258      -0.220195       0.000000
        4      C4               2.346539      -0.402703       0.000000              1.241735      -0.213101       0.000000
        5      C5              -2.296071       2.160543       0.000000             -1.215028       1.143310       0.000000
        6      C6               2.298399       2.173831       0.000000              1.216261       1.150342       0.000000
        7      C7              -0.003028       3.482166       0.000000             -0.001602       1.842683       0.000000
        8      H8              -1.966835      -5.455395       0.000000             -1.040804      -2.886871       0.000000
        9      H9               1.624738      -5.359436       0.000000              0.859775      -2.836091       0.000000
       10      H10             -4.060727      -1.454341       0.000000             -2.148844      -0.769604       0.000000
       11      H11              4.089080      -1.425346       0.000000              2.163848      -0.754261       0.000000
       12      H12             -4.043895       3.185743       0.000000             -2.139937       1.685823       0.000000
       13      H13              4.038255       3.211559       0.000000              2.136953       1.699484       0.000000
       14      H14             -0.008259       5.508888       0.000000             -0.004370       2.915178       0.000000
 
            Nuclear Potential Energy            271.63376552 au
 --------------------------------------------------- 
  >>>>>>>>>>>>> info: preparing drt no 1 out of 1 <<<<<<
starting mcdrt.x -m 200000 < mcdrtin > mcdrtls at Wed May  4 11:51:29 EDT 2022

 -------------------- mcdrt.x ------------------------
  Spin multiplicity: singlet 
  Spatial symmetry (#): 1
  Number of Configurations:       1275 
  --------------------------------------------------- 
 starting mcuft.x at Wed May  4 11:51:29 EDT 2022

 -------------------- mcuft.x ------------------------
 --------------------------------------------------- 
 ++++++++++++++++++++ MCSCF calculation +++++++++++++++
info: taking mocoef file from /scratch/users/yshen57@jhu.edu/Molcas/fast/1.2/mrci/mocoef
adding flag 30 to mcscfin
Writing mcdenin files for mcscf.x for 1 DRTs
adding flag 26 to mcscfin
starting mcscf.x -m 200000 at Wed May  4 11:51:29 EDT 2022

 -------------------- mcscf.x ------------------------
 Individual total energies for all states: 
    DRT #1 state # 1 wt 0.250 total energy=     -285.876426001, rel. (eV)=   0.000000
    DRT #1 state # 2 wt 0.250 total energy=     -285.696405173, rel. (eV)=   4.898618
    DRT #1 state # 3 wt 0.250 total energy=     -285.648894064, rel. (eV)=   6.191462
    DRT #1 state # 4 wt 0.250 total energy=     -285.610287799, rel. (eV)=   7.241992
  --------------------------------------------------- 
 starting mcpc.x -m 200000 < mcpcin > mcpcls at Wed May  4 11:53:53 EDT 2022

 -------------------- mcpc.x ------------------------
 --------------------------------------------------- 
 starting mcpc.x -m 200000 < mcpcin > mcpcls at Wed May  4 11:53:53 EDT 2022

 -------------------- mcpc.x ------------------------
 --------------------------------------------------- 
 starting mcpc.x -m 200000 < mcpcin > mcpcls at Wed May  4 11:53:53 EDT 2022

 -------------------- mcpc.x ------------------------
 --------------------------------------------------- 
 starting mcpc.x -m 200000 < mcpcin > mcpcls at Wed May  4 11:53:53 EDT 2022

 -------------------- mcpc.x ------------------------
 --------------------------------------------------- 
 
========= state properties for state-averaged MCSCF =========
mcscf.drt1.st01.sp
starting exptvl.x -m 200000   at Wed May  4 11:53:53 EDT 2022

 -------------------- exptvl.x ------------------------
  === dipole moment === 
                     X               Y               Z   
   orign x       0.00000000      0.00000000      0.00000000
   orign y       0.00000000      0.00000000      0.00000000
   orign z       0.00000000      0.00000000      0.00000000
   nuclear      -0.23113748     -0.68052606      0.00000000
   electronic    0.15850839     -0.48602592     -0.00000000
   total        -0.07262909     -1.16655198     -0.00000000
   total Dipole moment =   2.97082350    Debye
 --------------------------------------------------- 
 mcscf.drt1.st02.sp
starting exptvl.x -m 200000   at Wed May  4 11:53:53 EDT 2022

 -------------------- exptvl.x ------------------------
  === dipole moment === 
                     X               Y               Z   
   orign x       0.00000000      0.00000000      0.00000000
   orign y       0.00000000      0.00000000      0.00000000
   orign z       0.00000000      0.00000000      0.00000000
   nuclear      -0.23113748     -0.68052606      0.00000000
   electronic    0.35136492      3.91193271      0.00000000
   total         0.12022744      3.23140665      0.00000000
   total Dipole moment =   8.21910750    Debye
 --------------------------------------------------- 
 mcscf.drt1.st03.sp
starting exptvl.x -m 200000   at Wed May  4 11:53:54 EDT 2022

 -------------------- exptvl.x ------------------------
  === dipole moment === 
                     X               Y               Z   
   orign x       0.00000000      0.00000000      0.00000000
   orign y       0.00000000      0.00000000      0.00000000
   orign z       0.00000000      0.00000000      0.00000000
   nuclear      -0.23113748     -0.68052606      0.00000000
   electronic    0.16375569     -0.92402963     -0.00000000
   total        -0.06738179     -1.60455569     -0.00000000
   total Dipole moment =   4.08197235    Debye
 --------------------------------------------------- 
 mcscf.drt1.st04.sp
starting exptvl.x -m 200000   at Wed May  4 11:53:54 EDT 2022

 -------------------- exptvl.x ------------------------
  === dipole moment === 
                     X               Y               Z   
   orign x       0.00000000      0.00000000      0.00000000
   orign y       0.00000000      0.00000000      0.00000000
   orign z       0.00000000      0.00000000      0.00000000
   nuclear      -0.23113748     -0.68052606      0.00000000
   electronic    0.34267132      4.72290397      0.00000000
   total         0.11153384      4.04237791      0.00000000
   total Dipole moment =  10.27862019    Debye
 --------------------------------------------------- 
  using the MCSCF MOs ... 
starting cidrt.x  -m 200000 < cidrtin.1 > cidrtls at Wed May  4 11:53:54 EDT 2022

 -------------------- cidrt.x ------------------------
 total number of orbitals            :   246
 number of frozen core orbitals      :    18
 number of frozen virtual orbitals   :     0
 number of internal orbitals         :    14
 number of external orbitals         :   214
 spatial symmetry:   a  
 
 total number of configurations  158587185
 number of reference configurations  1275
 --------------------------------------------------- 
 starting cidrt.x  -m 200000 < cidrtin.2 > cidrtls at Wed May  4 11:53:56 EDT 2022

 -------------------- cidrt.x ------------------------
 total number of orbitals            :   246
 number of frozen core orbitals      :    18
 number of frozen virtual orbitals   :     0
 number of internal orbitals         :    14
 number of external orbitals         :   214
 spatial symmetry:   a  
 
 total number of configurations  282461366
 number of reference configurations  1666
 --------------------------------------------------- 
 starting tran.x -m 200000  at Wed May  4 11:54:01 EDT 2022

 -------------------- tran.x ------------------------
 --------------------------------------------------- 
  Starting ciudgav with DRT # 1 out of 2 

 *** starting pciudg section *** 
nproc: 48 machinefile:  
assuming machinefile syntax: one host name per line optionally repeated
 section2, MPI_STARTUP:
 /software/apps/mpi/openmpi/3.1/intel/18.0/bin/mpirun -np 48  /home-4/yshen57@jhu.edu/Software/Chemistry/Columbus-7.0.2_OpenMolcas-18.09-col/Columbus/pciudg.x -m 19000 
 -------------------- pciudg.x ------------------------
 type of calculation:          mr-sdci
 number of configurations:     158587185
 total mr-sdci energy             -286.0732561492 
 last mr-sdci energy change           0.0000000000 
 residual                             0.0000082418 
  type of calculation:          mr-sdci
 number of configurations:     158587185
 total mr-sdci energy             -285.9326475334 
 last mr-sdci energy change           0.0000000000 
 residual                             0.0000054861 
  type of calculation:          mr-sdci
 number of configurations:     158587185
 total mr-sdci energy             -285.8947816910 
 last mr-sdci energy change           0.0000000000 
 residual                             0.0000094955 
  type of calculation:          mr-sdci
 number of configurations:     158587185
 total mr-sdci energy             -285.8495772622 
 last mr-sdci energy change           0.0000000000 
 residual                             0.0000075881 
  --------------------------------------------------- 
 keyinfile returned docipci=0:
starting cipc.x -m 200000 < cipcin > cipcls at Thu May  5 04:49:27 EDT 2022

 -------------------- cipc.x ------------------------
 --------------------------------------------------- 
  Starting ciudgav with DRT # 2 out of 2 

 *** starting pciudg section *** 
nproc: 48 machinefile:  
assuming machinefile syntax: one host name per line optionally repeated
 section2, MPI_STARTUP:
 /software/apps/mpi/openmpi/3.1/intel/18.0/bin/mpirun -np 48  /home-4/yshen57@jhu.edu/Software/Chemistry/Columbus-7.0.2_OpenMolcas-18.09-col/Columbus/pciudg.x -m 19000 
 -------------------- pciudg.x ------------------------
 type of calculation:          mr-sdci
 number of configurations:     282461366
 total mr-sdci energy             -285.9372729913 
 last mr-sdci energy change           0.0000000000 
 residual                             0.0000079551 
  type of calculation:          mr-sdci
 number of configurations:     282461366
 total mr-sdci energy             -285.9258275987 
 last mr-sdci energy change           0.0000000000 
 residual                             0.0000054283 
  type of calculation:          mr-sdci
 number of configurations:     282461366
 total mr-sdci energy             -285.9138829516 
 last mr-sdci energy change          -0.0000000000 
 residual                             0.0000073027 
  type of calculation:          mr-sdci
 number of configurations:     282461366
 total mr-sdci energy             -285.8844046496 
 last mr-sdci energy change           0.0000000000 
 residual                             0.0000061693 
  --------------------------------------------------- 
 keyinfile returned docipci=0:
starting cipc.x -m 200000 < cipcin > cipcls at Fri May  6 16:40:17 EDT 2022

 -------------------- cipc.x ------------------------
 --------------------------------------------------- 
 Reindex call
run_socinr: imult=1 irrep=1 
opening file =ciudgls.drt1.sp
opening file =ciudgls.drt1.sp
opening file =ciudgls.drt1.sp
opening file =ciudgls.drt1.sp
run_socinr: imult=3 irrep=1 
opening file =ciudgls.drt2.sp
opening file =ciudgls.drt2.sp
opening file =ciudgls.drt2.sp
opening file =ciudgls.drt2.sp
 copying /scratch/users/yshen57@jhu.edu/Molcas/fast/1.2/mrci/cidrtfl.so__A --> cidrtfl.so__A 
 copying /scratch/users/yshen57@jhu.edu/Molcas/fast/1.2/mrci/cidrtfl.so__A --> cidrtfl.so__A 
starting reindex.x -m 200000 > reindexls at Fri May  6 16:40:38 EDT 2022

 -------------------- reindex.x ------------------------
 --------------------------------------------------- 
 1      1        1           civfl_1_A             1      1    0+       1             1         civfl.so__A
1      1        2           civfl_1_A             1      1    0+       2    1005971284         civfl.so__A
1      1        3           civfl_1_A             1      1    0+       3    2011942567         civfl.so__A
1      1        4           civfl_1_A             1      1    0+       4    3017913850         civfl.so__A
3      1        1           civfl_3_A             1      3    0+       5    4023885133         civfl.so__A
3      1        1           civfl_3_A             1      3    1+       6    5029856416         civfl.so__A
3      1        1           civfl_3_A             1      3    1-       7    6035827699         civfl.so__A
3      1        2           civfl_3_A             1      3    0+       8    7041798982         civfl.so__A
3      1        2           civfl_3_A             1      3    1+       9    8047770265         civfl.so__A
3      1        2           civfl_3_A             1      3    1-      10    9053741548         civfl.so__A
3      1        3           civfl_3_A             1      3    0+      11   10059712831         civfl.so__A
3      1        3           civfl_3_A             1      3    1+      12   11065684114         civfl.so__A
3      1        3           civfl_3_A             1      3    1-      13   12071655397         civfl.so__A
3      1        4           civfl_3_A             1      3    0+      14   13077626680         civfl.so__A
3      1        4           civfl_3_A             1      3    1+      15   14083597963         civfl.so__A
3      1        4           civfl_3_A             1      3    1-      16   15089569246         civfl.so__A
 Executing ciudg.x  for gamma =A ...

 *** starting pciudg section *** 
nproc: 48 machinefile:  
assuming machinefile syntax: one host name per line optionally repeated
 section2, MPI_STARTUP:
 /software/apps/mpi/openmpi/3.1/intel/18.0/bin/mpirun -np 48  /home-4/yshen57@jhu.edu/Software/Chemistry/Columbus-7.0.2_OpenMolcas-18.09-col/Columbus/pciudg.x -m 19000 
 -------------------- pciudg.x ------------------------
 type of calculation:          mr-sdci
 number of configurations:     1005971283
 total mr-sdci energy             -286.0732561615 
 last mr-sdci energy change           0.0000000123 
 residual                            35.8700000000 
  type of calculation:          mr-sdci
 number of configurations:     1005971283
 total mr-sdci energy             -285.9372730508 
 last mr-sdci energy change           0.0046255000 
 residual                            35.7340000000 
  type of calculation:          mr-sdci
 number of configurations:     1005971283
 total mr-sdci energy             -285.9372730507 
 last mr-sdci energy change           0.0424910000 
 residual                            35.7340000000 
  type of calculation:          mr-sdci
 number of configurations:     1005971283
 total mr-sdci energy             -285.9372729793 
 last mr-sdci energy change           0.0876960000 
 residual                            35.7340000000 
  type of calculation:          mr-sdci
 number of configurations:     1005971283
 total mr-sdci energy             -285.9326476208 
 last mr-sdci energy change          -0.0046254000 
 residual                            35.7290000000 
  type of calculation:          mr-sdci
 number of configurations:     1005971283
 total mr-sdci energy             -285.9258275399 
 last mr-sdci energy change          -0.0114450000 
 residual                            35.7220000000 
  type of calculation:          mr-sdci
 number of configurations:     1005971283
 total mr-sdci energy             -285.9258275398 
 last mr-sdci energy change          -0.0114450000 
 residual                            35.7220000000 
  type of calculation:          mr-sdci
 number of configurations:     1005971283
 total mr-sdci energy             -285.9258275120 
 last mr-sdci energy change          -0.0000000867 
 residual                            35.7220000000 
  type of calculation:          mr-sdci
 number of configurations:     1005971283
 total mr-sdci energy             -285.9138829533 
 last mr-sdci energy change          -0.0119450000 
 residual                            35.7100000000 
  type of calculation:          mr-sdci
 number of configurations:     1005971283
 total mr-sdci energy             -285.9138829514 
 last mr-sdci energy change          -0.0119450000 
 residual                            35.7100000000 
  type of calculation:          mr-sdci
 number of configurations:     1005971283
 total mr-sdci energy             -285.9138829514 
 last mr-sdci energy change          -0.0000000002 
 residual                            35.7100000000 
  type of calculation:          mr-sdci
 number of configurations:     1005971283
 total mr-sdci energy             -285.8947816908 
 last mr-sdci energy change          -0.0191010000 
 residual                            35.6910000000 
  type of calculation:          mr-sdci
 number of configurations:     1005971283
 total mr-sdci energy             -285.8844046493 
 last mr-sdci energy change          -0.0294780000 
 residual                            35.6810000000 
  type of calculation:          mr-sdci
 number of configurations:     1005971283
 total mr-sdci energy             -285.8844046492 
 last mr-sdci energy change          -0.0000000004 
 residual                            35.6810000000 
  type of calculation:          mr-sdci
 number of configurations:     1005971283
 total mr-sdci energy             -285.8844046492 
 last mr-sdci energy change          -0.0000000004 
 residual                            35.6810000000 
  type of calculation:          mr-sdci
 number of configurations:     1005971283
 total mr-sdci energy             -285.8495772600 
 last mr-sdci energy change          -0.0348270000 
 residual                            35.6460000000 
  --------------------------------------------------- 
 ************* Results for Spin-Orbit CI gamma=A **************** 
Final spin-orbit CI state energies: 


-------------- HT matrix in AU ----------------  
-35.869541    
 0.000000    -35.728933    
 0.000000     0.000000    -35.691067    
 0.000000     0.000000     0.000000    -35.645862    
 0.000000     0.000000    -0.000000     0.000001    -35.733558    
-0.000022     0.000000     0.000003     0.000000    -0.000000    -35.733558    
 0.000035    -0.000000     0.000001    -0.000000    -0.000000     0.000000    -35.733558    
-0.000000     0.000000     0.000000    -0.000000     0.000000    -0.000023    -0.000012    -35.722113    
-0.000000    -0.000011     0.000000     0.000004     0.000023     0.000000    -0.000000    -0.000000    -35.722113    
-0.000000     0.000022    -0.000000    -0.000001     0.000012     0.000000     0.000000    -0.000000     0.000000    -35.722113    
-0.000000    -0.000000     0.000000     0.000000     0.000000    -0.000002     0.000001     0.000000     0.000000     0.000000    -35.710168    
-0.000000     0.000001    -0.000000    -0.000005     0.000002     0.000000     0.000000    -0.000000     0.000000    -0.000000    -0.000000    -35.710168    
 0.000000     0.000002     0.000000     0.000010    -0.000001    -0.000000     0.000000    -0.000000     0.000000     0.000000    -0.000000     0.000000    -35.710168    
-0.000000    -0.000000    -0.000000    -0.000000     0.000000     0.000004     0.000002     0.000000    -0.000000    -0.000000     0.000000     0.000000     0.000000    -35.680690    
-0.000000     0.000002     0.000000     0.000001    -0.000004     0.000000     0.000000     0.000000     0.000000    -0.000000    -0.000000     0.000000    -0.000000    -0.000000    -35.680690    
 0.000000    -0.000004    -0.000000     0.000001    -0.000002    -0.000000     0.000000     0.000000     0.000000     0.000000    -0.000000     0.000000     0.000000    -0.000000     0.000000    -35.680690    
-------------- HT matrix in eV ---------------- 
 -976.060   
    0.000    -972.234   
    0.000       0.000    -971.203   
    0.000       0.000       0.000    -969.973   
    0.000       0.000      -0.000       0.000    -972.360   
   -0.001       0.000       0.000       0.000      -0.000    -972.360   
    0.001      -0.000       0.000      -0.000      -0.000       0.000    -972.360   
   -0.000       0.000       0.000      -0.000       0.000      -0.001      -0.000    -972.048   
   -0.000      -0.000       0.000       0.000       0.001       0.000      -0.000      -0.000    -972.048   
   -0.000       0.001      -0.000      -0.000       0.000       0.000       0.000      -0.000       0.000    -972.048   
   -0.000      -0.000       0.000       0.000       0.000      -0.000       0.000       0.000       0.000       0.000    -971.723   
   -0.000       0.000      -0.000      -0.000       0.000       0.000       0.000      -0.000       0.000      -0.000      -0.000    -971.723   
    0.000       0.000       0.000       0.000      -0.000      -0.000       0.000      -0.000       0.000       0.000      -0.000       0.000    -971.723   
   -0.000      -0.000      -0.000      -0.000       0.000       0.000       0.000       0.000      -0.000      -0.000       0.000       0.000       0.000    -970.921   
   -0.000       0.000       0.000       0.000      -0.000       0.000       0.000       0.000       0.000      -0.000      -0.000       0.000      -0.000      -0.000    -970.921   
    0.000      -0.000      -0.000       0.000      -0.000      -0.000       0.000       0.000       0.000       0.000      -0.000       0.000       0.000      -0.000       0.000    -970.921   
-------------- HT matrix in cm-1 ------------------- 
Eref = -35.86954115
     0.00   
     0.00    30860.08   
     0.00        0.00    39170.68   
     0.00        0.00        0.00    49091.92   
     0.00        0.03        0.00        0.17    29844.90   
    -4.79        0.00        0.61        0.00        0.00    29844.90   
     7.59        0.00        0.13        0.00        0.00        0.00    29844.90   
     0.00        0.00        0.01        0.00        0.00       -5.09       -2.57    32356.88   
     0.00       -2.38        0.00        0.79        5.09        0.00        0.00        0.00    32356.88   
     0.00        4.78        0.00       -0.23        2.57        0.00        0.00        0.00        0.00    32356.88   
    -0.00        0.00        0.00        0.00        0.00       -0.37        0.30        0.00        0.00        0.00    34978.43   
     0.00        0.29        0.00       -1.06        0.37        0.00        0.00        0.00        0.00       -0.02        0.00    34978.43   
     0.00        0.37        0.00        2.17       -0.30        0.00        0.00        0.00        0.02        0.00        0.00        0.00    34978.43   
     0.00        0.00       -0.00        0.00        0.00        0.89        0.47        0.00        0.00        0.00        0.00        0.00        0.00    41448.18   
     0.00        0.42        0.00        0.29       -0.89        0.00        0.00        0.00        0.00        0.00        0.00        0.00       -0.00        0.00    41448.18   
     0.00       -0.82        0.00        0.24       -0.47        0.00        0.00        0.00        0.00        0.00        0.00        0.00        0.00        0.00        0.00    41448.18   


Spin-Orbit CI: perturbational estimate of Spin-Orbit CI energies and wavefunctions 
                SO   1         SO   2         SO   3         SO   4         SO   5         SO   6         SO   7         SO   8

   energy  -286.07325616  -285.93727305  -285.93727305  -285.93727298  -285.93264762  -285.92582754  -285.92582754  -285.92582751
 
   NR   1     0.99999995    -0.00000000    -0.00002424     0.00029974    -0.00000000     0.00000000     0.00000003    -0.00000000
   NR   2     0.00000000    -0.00003028    -0.00000000     0.00000000     0.99999363     0.00004913    -0.00000000     0.00356617
   NR   3    -0.00000000     0.00000000    -0.00006436     0.00001744    -0.00000000    -0.00000000    -0.00000156     0.00000000
   NR   4    -0.00000000    -0.00000896    -0.00000000     0.00000000    -0.00000010     0.00003675    -0.00000000     0.00003277
   NR   5    -0.00000000     0.99999742     0.00000003     0.00000001     0.00003024    -0.00226776     0.00000011     0.00004255
   NR   6     0.00016048    -0.00000003     0.88598031    -0.46371839     0.00000000    -0.00000010    -0.00202481     0.00000000
   NR   7    -0.00025432    -0.00000002     0.46371729     0.88598260    -0.00000000    -0.00000005    -0.00102210     0.00000000
   NR   8     0.00000003    -0.00000000     0.00226791    -0.00003338    -0.00000000     0.00005029     0.99999743    -0.00000006
   NR   9     0.00000000    -0.00202483    -0.00000000     0.00000000     0.00159129    -0.90099595     0.00004528    -0.43381985
   NR  10     0.00000000    -0.00102204    -0.00000000     0.00000000    -0.00319183    -0.43382157     0.00002187     0.90099257
   NR  11     0.00000005    -0.00000000     0.00003694    -0.00008557     0.00000000    -0.00000000    -0.00000017     0.00000000
   NR  12     0.00000000    -0.00007242    -0.00000000    -0.00000000    -0.00007086    -0.00000235     0.00000000     0.00000518
   NR  13    -0.00000000     0.00005869     0.00000000     0.00000000    -0.00008924     0.00000527    -0.00000000     0.00000216
   NR  14     0.00000001     0.00000000    -0.00008664     0.00000003     0.00000000     0.00000000     0.00000025     0.00000000
   NR  15     0.00000000     0.00007677     0.00000000    -0.00000000    -0.00003991    -0.00000023     0.00000000    -0.00000016
   NR  16    -0.00000000     0.00004015     0.00000000    -0.00000000     0.00007750    -0.00000011     0.00000000     0.00000032

                SO   9         SO  10         SO  11         SO  12         SO  13         SO  14         SO  15         SO  16

   energy  -285.91388295  -285.91388295  -285.91388295  -285.89478169  -285.88440465  -285.88440465  -285.88440465  -285.84957726
 
   NR   1     0.00000000    -0.00000002     0.00000000     0.00000001    -0.00000000     0.00000000     0.00000002     0.00000000
   NR   2     0.00004803     0.00000001     0.00010331    -0.00000000     0.00002407    -0.00008378     0.00000000    -0.00000001
   NR   3    -0.00000000    -0.00000012     0.00000000    -1.00000000    -0.00000000    -0.00000000     0.00000048     0.00000000
   NR   4    -0.00017092    -0.00000000    -0.00000153     0.00000000     0.00004927     0.00000346     0.00000000     0.99999998
   NR   5    -0.00008491     0.00000000     0.00003844     0.00000000     0.00008342     0.00002340     0.00000000     0.00000903
   NR   6     0.00000000    -0.00007241     0.00000000    -0.00006511     0.00000000    -0.00000000    -0.00007677     0.00000000
   NR   7    -0.00000000     0.00005868    -0.00000000    -0.00001439     0.00000000    -0.00000000    -0.00004015    -0.00000000
   NR   8    -0.00000000     0.00000008    -0.00000000    -0.00000171    -0.00000000     0.00000000     0.00000005    -0.00000000
   NR   9     0.00000527     0.00000000     0.00000275    -0.00000000     0.00000004     0.00000004     0.00000000     0.00004731
   NR  10     0.00000279    -0.00000000    -0.00000530     0.00000000     0.00000004    -0.00000004     0.00000000    -0.00001360
   NR  11    -0.00000034     0.99999999    -0.00005427    -0.00000013     0.00000000    -0.00000000     0.00000000     0.00000000
   NR  12    -0.44808075     0.00004836     0.89399308     0.00000000    -0.00000043     0.00000045    -0.00000000    -0.00007522
   NR  13     0.89399307     0.00002462     0.44808075    -0.00000000     0.00000047     0.00000043    -0.00000000     0.00015348
   NR  14    -0.00000000     0.00000001    -0.00000000    -0.00000047     0.00000329    -0.00000199    -1.00000000    -0.00000000
   NR  15     0.00000055     0.00000000     0.00000028     0.00000000    -0.72803911    -0.68553559    -0.00000103     0.00003824
   NR  16     0.00000029    -0.00000000    -0.00000054    -0.00000000    -0.68553559     0.72803911    -0.00000371     0.00003126
rescaling new expansion vector ... old norm=   4086.4175672379

 model space basis from reindexls .. 
 --SO-CI-------         -----NR-CI-------             ---model space---- 
 Gamma  root             S   irrep   root                S   ms* 
A          1             1   A         1                 1   0+
A          2             1   A         2                 1   0+
A          3             1   A         3                 1   0+
A          4             1   A         4                 1   0+
A          5             3   A         1                 3   0+
A          6             3   A         1                 3   1+
A          7             3   A         1                 3   1-
A          8             3   A         2                 3   0+
A          9             3   A         2                 3   1+
A         10             3   A         2                 3   1-
A         11             3   A         3                 3   0+
A         12             3   A         3                 3   1+
A         13             3   A         3                 3   1-
A         14             3   A         4                 3   0+
A         15             3   A         4                 3   1+
A         16             3   A         4                 3   1-

************************** SUMMARY *********************************

--------------  SO matrix for irrep A in eV ---------------- 
|1,0+;1,A,1>  -976.060   
|1,0+;1,A,2>     0.000    -972.234   
|1,0+;1,A,3>     0.000       0.000    -971.203   
|1,0+;1,A,4>     0.000       0.000       0.000    -969.973   
|3,0+;3,A,1>     0.000       0.000      -0.000       0.000    -972.360   
|3,1+;3,A,1>    -0.001       0.000       0.000       0.000      -0.000    -972.360   
|3,1-;3,A,1>     0.001      -0.000       0.000      -0.000      -0.000       0.000    -972.360   
|3,0+;3,A,2>    -0.000       0.000       0.000      -0.000       0.000      -0.001      -0.000    -972.048   
|3,1+;3,A,2>    -0.000      -0.000       0.000       0.000       0.001       0.000      -0.000      -0.000    -972.048   
|3,1-;3,A,2>    -0.000       0.001      -0.000      -0.000       0.000       0.000       0.000      -0.000       0.000    -972.048   
|3,0+;3,A,3>    -0.000      -0.000       0.000       0.000       0.000      -0.000       0.000       0.000       0.000       0.000    -971.723   
|3,1+;3,A,3>    -0.000       0.000      -0.000      -0.000       0.000       0.000       0.000      -0.000       0.000      -0.000      -0.000    -971.723   
|3,1-;3,A,3>     0.000       0.000       0.000       0.000      -0.000      -0.000       0.000      -0.000       0.000       0.000      -0.000       0.000    -971.723   
|3,0+;3,A,4>    -0.000      -0.000      -0.000      -0.000       0.000       0.000       0.000       0.000      -0.000      -0.000       0.000       0.000       0.000    -970.921   
|3,1+;3,A,4>    -0.000       0.000       0.000       0.000      -0.000       0.000       0.000       0.000       0.000      -0.000      -0.000       0.000      -0.000      -0.000    -970.921   
|3,1-;3,A,4>     0.000      -0.000      -0.000       0.000      -0.000      -0.000       0.000       0.000       0.000       0.000      -0.000       0.000       0.000      -0.000       0.000    -970.921   

--------------  SO matrix for irrep A in cm-1 ------------------- 
Eref = -35.86954115
|1,0+;1,A,1>      0.00   
|1,0+;1,A,2>      0.00    30860.08   
|1,0+;1,A,3>      0.00        0.00    39170.68   
|1,0+;1,A,4>      0.00        0.00        0.00    49091.92   
|3,0+;3,A,1>      0.00        0.03        0.00        0.17    29844.90   
|3,1+;3,A,1>     -4.79        0.00        0.61        0.00        0.00    29844.90   
|3,1-;3,A,1>      7.59        0.00        0.13        0.00        0.00        0.00    29844.90   
|3,0+;3,A,2>      0.00        0.00        0.01        0.00        0.00       -5.09       -2.57    32356.88   
|3,1+;3,A,2>      0.00       -2.38        0.00        0.79        5.09        0.00        0.00        0.00    32356.88   
|3,1-;3,A,2>      0.00        4.78        0.00       -0.23        2.57        0.00        0.00        0.00        0.00    32356.88   
|3,0+;3,A,3>     -0.00        0.00        0.00        0.00        0.00       -0.37        0.30        0.00        0.00        0.00    34978.43   
|3,1+;3,A,3>      0.00        0.29        0.00       -1.06        0.37        0.00        0.00        0.00        0.00       -0.02        0.00    34978.43   
|3,1-;3,A,3>      0.00        0.37        0.00        2.17       -0.30        0.00        0.00        0.00        0.02        0.00        0.00        0.00    34978.43   
|3,0+;3,A,4>      0.00        0.00       -0.00        0.00        0.00        0.89        0.47        0.00        0.00        0.00        0.00        0.00        0.00    41448.18   
|3,1+;3,A,4>      0.00        0.42        0.00        0.29       -0.89        0.00        0.00        0.00        0.00        0.00        0.00        0.00       -0.00        0.00    41448.18   
|3,1-;3,A,4>      0.00       -0.82        0.00        0.24       -0.47        0.00        0.00        0.00        0.00        0.00        0.00        0.00        0.00        0.00        0.00    41448.18   


 ** perturbational estimate of Spin-Orbit CI energies and wavefunctions in model space basis** 

                      A  1         A  2         A  3         A  4         A  5         A  6         A  7         A  8

            energy  -286.07325616  -285.93727305  -285.93727305  -285.93727298  -285.93264762  -285.92582754  -285.92582754  -285.92582751
          
   |1,0+;1,A,1>     0.99999995    -0.00000000    -0.00002424     0.00029974    -0.00000000     0.00000000     0.00000003    -0.00000000
   |1,0+;1,A,2>     0.00000000    -0.00003028    -0.00000000     0.00000000     0.99999363     0.00004913    -0.00000000     0.00356617
   |1,0+;1,A,3>    -0.00000000     0.00000000    -0.00006436     0.00001744    -0.00000000    -0.00000000    -0.00000156     0.00000000
   |1,0+;1,A,4>    -0.00000000    -0.00000896    -0.00000000     0.00000000    -0.00000010     0.00003675    -0.00000000     0.00003277
   |3,0+;3,A,1>    -0.00000000     0.99999742     0.00000003     0.00000001     0.00003024    -0.00226776     0.00000011     0.00004255
   |3,1+;3,A,1>     0.00016048    -0.00000003     0.88598031    -0.46371839     0.00000000    -0.00000010    -0.00202481     0.00000000
   |3,1-;3,A,1>    -0.00025432    -0.00000002     0.46371729     0.88598260    -0.00000000    -0.00000005    -0.00102210     0.00000000
   |3,0+;3,A,2>     0.00000003    -0.00000000     0.00226791    -0.00003338    -0.00000000     0.00005029     0.99999743    -0.00000006
   |3,1+;3,A,2>     0.00000000    -0.00202483    -0.00000000     0.00000000     0.00159129    -0.90099595     0.00004528    -0.43381985
   |3,1-;3,A,2>     0.00000000    -0.00102204    -0.00000000     0.00000000    -0.00319183    -0.43382157     0.00002187     0.90099257
   |3,0+;3,A,3>     0.00000005    -0.00000000     0.00003694    -0.00008557     0.00000000    -0.00000000    -0.00000017     0.00000000
   |3,1+;3,A,3>     0.00000000    -0.00007242    -0.00000000    -0.00000000    -0.00007086    -0.00000235     0.00000000     0.00000518
   |3,1-;3,A,3>    -0.00000000     0.00005869     0.00000000     0.00000000    -0.00008924     0.00000527    -0.00000000     0.00000216
   |3,0+;3,A,4>     0.00000001     0.00000000    -0.00008664     0.00000003     0.00000000     0.00000000     0.00000025     0.00000000
   |3,1+;3,A,4>     0.00000000     0.00007677     0.00000000    -0.00000000    -0.00003991    -0.00000023     0.00000000    -0.00000016
   |3,1-;3,A,4>    -0.00000000     0.00004015     0.00000000    -0.00000000     0.00007750    -0.00000011     0.00000000     0.00000032

                      A  9         A 10         A 11         A 12         A 13         A 14         A 15         A 16

            energy  -285.91388295  -285.91388295  -285.91388295  -285.89478169  -285.88440465  -285.88440465  -285.88440465  -285.84957726
          
   |1,0+;1,A,1>     0.00000000    -0.00000002     0.00000000     0.00000001    -0.00000000     0.00000000     0.00000002     0.00000000
   |1,0+;1,A,2>     0.00004803     0.00000001     0.00010331    -0.00000000     0.00002407    -0.00008378     0.00000000    -0.00000001
   |1,0+;1,A,3>    -0.00000000    -0.00000012     0.00000000    -1.00000000    -0.00000000    -0.00000000     0.00000048     0.00000000
   |1,0+;1,A,4>    -0.00017092    -0.00000000    -0.00000153     0.00000000     0.00004927     0.00000346     0.00000000     0.99999998
   |3,0+;3,A,1>    -0.00008491     0.00000000     0.00003844     0.00000000     0.00008342     0.00002340     0.00000000     0.00000903
   |3,1+;3,A,1>     0.00000000    -0.00007241     0.00000000    -0.00006511     0.00000000    -0.00000000    -0.00007677     0.00000000
   |3,1-;3,A,1>    -0.00000000     0.00005868    -0.00000000    -0.00001439     0.00000000    -0.00000000    -0.00004015    -0.00000000
   |3,0+;3,A,2>    -0.00000000     0.00000008    -0.00000000    -0.00000171    -0.00000000     0.00000000     0.00000005    -0.00000000
   |3,1+;3,A,2>     0.00000527     0.00000000     0.00000275    -0.00000000     0.00000004     0.00000004     0.00000000     0.00004731
   |3,1-;3,A,2>     0.00000279    -0.00000000    -0.00000530     0.00000000     0.00000004    -0.00000004     0.00000000    -0.00001360
   |3,0+;3,A,3>    -0.00000034     0.99999999    -0.00005427    -0.00000013     0.00000000    -0.00000000     0.00000000     0.00000000
   |3,1+;3,A,3>    -0.44808075     0.00004836     0.89399308     0.00000000    -0.00000043     0.00000045    -0.00000000    -0.00007522
   |3,1-;3,A,3>     0.89399307     0.00002462     0.44808075    -0.00000000     0.00000047     0.00000043    -0.00000000     0.00015348
   |3,0+;3,A,4>    -0.00000000     0.00000001    -0.00000000    -0.00000047     0.00000329    -0.00000199    -1.00000000    -0.00000000
   |3,1+;3,A,4>     0.00000055     0.00000000     0.00000028     0.00000000    -0.72803911    -0.68553559    -0.00000103     0.00003824
   |3,1-;3,A,4>     0.00000029    -0.00000000    -0.00000054    -0.00000000    -0.68553559     0.72803911    -0.00000371     0.00003126
rescaling new expansion vector ... old norm=   4086.4175672379

Sorted Energies:
1  -286.07325616 
2  -285.93727305 
3  -285.93727305 
4  -285.93727298 
5  -285.93264762 
6  -285.92582754 
7  -285.92582754 
8  -285.92582751 
9  -285.91388295 
10  -285.91388295 
11  -285.91388295 
12  -285.89478169 
13  -285.88440465 
14  -285.88440465 
15  -285.88440465 
16  -285.84957726 
Not computing transition moment with identical bra and ket.
 Calculating transition moment for (1,1) => (1,2)
 starting transci.x -m 200000 at Fri May  6 18:32:15 EDT 2022

 -------------------- transci.x ------------------------

                          State No. 1            State No. 2

   Space symmetry:           a                      a   
   No. of CSFs:          ********               ********
   State energies:      -286.07325615          -285.93264753  a.u.

   Transition energy:     0.14060862  a.u.
   Transition energy:     3.83        eV

       Transition moment components:

                 x            y            z

electron          0.000000     0.000000    -0.034495  e*bohr
frozen core       0.000000     0.000000     0.000000  e*bohr
total (elec)      0.000000     0.000000    -0.034495  e*bohr


   Tr.dipole length:     0.034495    e*bohr
   Oscillator strength :  0.000112
   Einstein A coef.:     0.7085E+05  1/sec
   Einstein B coef.:     0.4829E+06  sec/g

                 x            y            z

<L> electron    -0.346927     0.063429    -0.000000  e*bohr


   <L> value length:     0.352678    e*bohr
 --------------------------------------------------- 
  Calculating transition moment for (1,1) => (1,3)
 starting transci.x -m 200000 at Fri May  6 18:34:29 EDT 2022

 -------------------- transci.x ------------------------

                          State No. 1            State No. 2

   Space symmetry:           a                      a   
   No. of CSFs:          ********               ********
   State energies:      -286.07325615          -285.89478169  a.u.

   Transition energy:     0.17847446  a.u.
   Transition energy:     4.86        eV

       Transition moment components:

                 x            y            z

electron         -0.644725     0.008394     0.000000  e*bohr
frozen core       0.000000     0.000000     0.000000  e*bohr
total (elec)     -0.644725     0.008394     0.000000  e*bohr


   Tr.dipole length:     0.644779    e*bohr
   Oscillator strength :  0.049466
   Einstein A coef.:     0.5062E+08  1/sec
   Einstein B coef.:     0.1687E+09  sec/g

                 x            y            z

<L> electron    -0.000000     0.000000     0.791241  e*bohr


   <L> value length:     0.791241    e*bohr
 --------------------------------------------------- 
  Calculating transition moment for (1,1) => (1,4)
 starting transci.x -m 200000 at Fri May  6 18:36:41 EDT 2022

 -------------------- transci.x ------------------------

                          State No. 1            State No. 2

   Space symmetry:           a                      a   
   No. of CSFs:          ********               ********
   State energies:      -286.07325615          -285.84957726  a.u.

   Transition energy:     0.22367889  a.u.
   Transition energy:     6.09        eV

       Transition moment components:

                 x            y            z

electron         -0.000000     0.000000     0.002351  e*bohr
frozen core       0.000000     0.000000     0.000000  e*bohr
total (elec)     -0.000000     0.000000     0.002351  e*bohr


   Tr.dipole length:     0.002351    e*bohr
   Oscillator strength :  0.000001
   Einstein A coef.:     0.1325E+04  1/sec
   Einstein B coef.:     0.2244E+04  sec/g

                 x            y            z

<L> electron     0.014580     0.393655     0.000000  e*bohr


   <L> value length:     0.393925    e*bohr
 --------------------------------------------------- 
 Not computing transition moment with identical bra and ket.
 Calculating transition moment for (1,2) => (1,3)
 starting transci.x -m 200000 at Fri May  6 18:38:58 EDT 2022

 -------------------- transci.x ------------------------

                          State No. 1            State No. 2

   Space symmetry:           a                      a   
   No. of CSFs:          ********               ********
   State energies:      -285.93264753          -285.89478169  a.u.

   Transition energy:     0.03786584  a.u.
   Transition energy:     1.03        eV

       Transition moment components:

                 x            y            z

electron         -0.000000     0.000000    -0.004348  e*bohr
frozen core       0.000000     0.000000     0.000000  e*bohr
total (elec)     -0.000000     0.000000    -0.004348  e*bohr


   Tr.dipole length:     0.004348    e*bohr
   Oscillator strength :  0.000000
   Einstein A coef.:     0.2198E+02  1/sec
   Einstein B coef.:     0.7671E+04  sec/g

                 x            y            z

<L> electron    -0.002769     0.122785     0.000000  e*bohr


   <L> value length:     0.122816    e*bohr
 --------------------------------------------------- 
  Calculating transition moment for (1,2) => (1,4)
 starting transci.x -m 200000 at Fri May  6 18:41:11 EDT 2022

 -------------------- transci.x ------------------------

                          State No. 1            State No. 2

   Space symmetry:           a                      a   
   No. of CSFs:          ********               ********
   State energies:      -285.93264753          -285.84957726  a.u.

   Transition energy:     0.08307027  a.u.
   Transition energy:     2.26        eV

       Transition moment components:

                 x            y            z

electron         -0.159450    -0.021074     0.000000  e*bohr
frozen core       0.000000     0.000000     0.000000  e*bohr
total (elec)     -0.159450    -0.021074     0.000000  e*bohr


   Tr.dipole length:     0.160837    e*bohr
   Oscillator strength :  0.001433
   Einstein A coef.:     0.3176E+06  1/sec
   Einstein B coef.:     0.1050E+08  sec/g

                 x            y            z

<L> electron    -0.000000     0.000000     0.568669  e*bohr


   <L> value length:     0.568669    e*bohr
 --------------------------------------------------- 
 Not computing transition moment with identical bra and ket.
 Calculating transition moment for (1,3) => (1,4)
 starting transci.x -m 200000 at Fri May  6 18:43:23 EDT 2022

 -------------------- transci.x ------------------------

                          State No. 1            State No. 2

   Space symmetry:           a                      a   
   No. of CSFs:          ********               ********
   State energies:      -285.89478169          -285.84957726  a.u.

   Transition energy:     0.04520443  a.u.
   Transition energy:     1.23        eV

       Transition moment components:

                 x            y            z

electron         -0.000000     0.000000     0.038850  e*bohr
frozen core       0.000000     0.000000     0.000000  e*bohr
total (elec)     -0.000000     0.000000     0.038850  e*bohr


   Tr.dipole length:     0.038850    e*bohr
   Oscillator strength :  0.000045
   Einstein A coef.:     0.2986E+04  1/sec
   Einstein B coef.:     0.6125E+06  sec/g

                 x            y            z

<L> electron     0.173320    -0.027610    -0.000000  e*bohr


   <L> value length:     0.175506    e*bohr
 --------------------------------------------------- 
 Not computing transition moment with identical bra and ket.
Not computing transition moment with identical bra and ket.
 Calculating transition moment for (2,1) => (2,2)
 starting transci.x -m 200000 at Fri May  6 18:45:36 EDT 2022

 -------------------- transci.x ------------------------

                          State No. 1            State No. 2

   Space symmetry:           a                      a   
   No. of CSFs:          ********               ********
   State energies:      -285.93727299          -285.92582760  a.u.

   Transition energy:     0.01144539  a.u.
   Transition energy:     0.31        eV

       Transition moment components:

                 x            y            z

electron         -0.000000    -0.000000     0.002780  e*bohr
frozen core       0.000000     0.000000     0.000000  e*bohr
total (elec)     -0.000000    -0.000000     0.002780  e*bohr


   Tr.dipole length:     0.002780    e*bohr
   Oscillator strength :  0.000000
   Einstein A coef.:     0.2481E+00  1/sec
   Einstein B coef.:     0.3136E+04  sec/g

                 x            y            z

<L> electron    -0.222651     0.041636    -0.000000  e*bohr


   <L> value length:     0.226511    e*bohr
 --------------------------------------------------- 
  Calculating transition moment for (2,1) => (2,3)
 starting transci.x -m 200000 at Fri May  6 18:49:50 EDT 2022

 -------------------- transci.x ------------------------

                          State No. 1            State No. 2

   Space symmetry:           a                      a   
   No. of CSFs:          ********               ********
   State energies:      -285.93727299          -285.91388295  a.u.

   Transition energy:     0.02339004  a.u.
   Transition energy:     0.64        eV

       Transition moment components:

                 x            y            z

electron         -0.000000    -0.000000     0.005630  e*bohr
frozen core       0.000000     0.000000     0.000000  e*bohr
total (elec)     -0.000000    -0.000000     0.005630  e*bohr


   Tr.dipole length:     0.005630    e*bohr
   Oscillator strength :  0.000000
   Einstein A coef.:     0.8687E+01  1/sec
   Einstein B coef.:     0.1286E+05  sec/g

                 x            y            z

<L> electron    -0.007721    -0.087079     0.000000  e*bohr


   <L> value length:     0.087421    e*bohr
 --------------------------------------------------- 
  Calculating transition moment for (2,1) => (2,4)
 starting transci.x -m 200000 at Fri May  6 18:53:53 EDT 2022

 -------------------- transci.x ------------------------

                          State No. 1            State No. 2

   Space symmetry:           a                      a   
   No. of CSFs:          ********               ********
   State energies:      -285.93727299          -285.88440465  a.u.

   Transition energy:     0.05286834  a.u.
   Transition energy:     1.44        eV

       Transition moment components:

                 x            y            z

electron         -0.000000     0.000000     0.016599  e*bohr
frozen core       0.000000     0.000000     0.000000  e*bohr
total (elec)     -0.000000     0.000000     0.016599  e*bohr


   Tr.dipole length:     0.016599    e*bohr
   Oscillator strength :  0.000010
   Einstein A coef.:     0.8720E+03  1/sec
   Einstein B coef.:     0.1118E+06  sec/g

                 x            y            z

<L> electron     0.036429    -0.008144    -0.000000  e*bohr


   <L> value length:     0.037328    e*bohr
 --------------------------------------------------- 
 Not computing transition moment with identical bra and ket.
 Calculating transition moment for (2,2) => (2,3)
 starting transci.x -m 200000 at Fri May  6 18:58:12 EDT 2022

 -------------------- transci.x ------------------------

                          State No. 1            State No. 2

   Space symmetry:           a                      a   
   No. of CSFs:          ********               ********
   State energies:      -285.92582760          -285.91388295  a.u.

   Transition energy:     0.01194465  a.u.
   Transition energy:     0.33        eV

       Transition moment components:

                 x            y            z

electron         -0.295052    -0.018120    -0.000000  e*bohr
frozen core       0.000000     0.000000     0.000000  e*bohr
total (elec)     -0.295052    -0.018120    -0.000000  e*bohr


   Tr.dipole length:     0.295608    e*bohr
   Oscillator strength :  0.000696
   Einstein A coef.:     0.3190E+04  1/sec
   Einstein B coef.:     0.3546E+08  sec/g

                 x            y            z

<L> electron     0.000000    -0.000000    -1.293675  e*bohr


   <L> value length:     1.293675    e*bohr
 --------------------------------------------------- 
  Calculating transition moment for (2,2) => (2,4)
 starting transci.x -m 200000 at Fri May  6 19:02:18 EDT 2022

 -------------------- transci.x ------------------------

                          State No. 1            State No. 2

   Space symmetry:           a                      a   
   No. of CSFs:          ********               ********
   State energies:      -285.92582760          -285.88440465  a.u.

   Transition energy:     0.04142295  a.u.
   Transition energy:     1.13        eV

       Transition moment components:

                 x            y            z

electron          0.000336    -0.202486     0.000000  e*bohr
frozen core       0.000000     0.000000     0.000000  e*bohr
total (elec)      0.000336    -0.202486     0.000000  e*bohr


   Tr.dipole length:     0.202487    e*bohr
   Oscillator strength :  0.001132
   Einstein A coef.:     0.6242E+05  1/sec
   Einstein B coef.:     0.1664E+08  sec/g

                 x            y            z

<L> electron     0.000000    -0.000000    -0.010812  e*bohr


   <L> value length:     0.010812    e*bohr
 --------------------------------------------------- 
 Not computing transition moment with identical bra and ket.
 Calculating transition moment for (2,3) => (2,4)
 starting transci.x -m 200000 at Fri May  6 19:06:20 EDT 2022

 -------------------- transci.x ------------------------

                          State No. 1            State No. 2

   Space symmetry:           a                      a   
   No. of CSFs:          ********               ********
   State energies:      -285.91388295          -285.88440465  a.u.

   Transition energy:     0.02947830  a.u.
   Transition energy:     0.80        eV

       Transition moment components:

                 x            y            z

electron         -0.187691    -0.001284    -0.000000  e*bohr
frozen core       0.000000     0.000000     0.000000  e*bohr
total (elec)     -0.187691    -0.001284    -0.000000  e*bohr


   Tr.dipole length:     0.187695    e*bohr
   Oscillator strength :  0.000692
   Einstein A coef.:     0.1933E+05  1/sec
   Einstein B coef.:     0.1430E+08  sec/g

                 x            y            z

<L> electron     0.000000    -0.000000     0.031393  e*bohr


   <L> value length:     0.031393    e*bohr
 --------------------------------------------------- 
 Not computing transition moment with identical bra and ket.
 --- ci properties for state 1 of  DRT 1 ----
starting exptvl.x -m 200000  at Fri May  6 19:10:24 EDT 2022

 -------------------- exptvl.x ------------------------
  === dipole moment === 
                     X               Y               Z   
   orign x       0.00000000      0.00000000      0.00000000
   orign y       0.00000000      0.00000000      0.00000000
   orign z       0.00000000      0.00000000      0.00000000
   nuclear      -0.23113748     -0.68052606      0.00000000
   electronic    0.19882661     -0.33427872      0.00000000
   total        -0.03231087     -1.01480478      0.00000000
   total Dipole moment =   2.58068613    Debye
 --------------------------------------------------- 
  --- ci properties for state 2 of  DRT 1 ----
starting exptvl.x -m 200000  at Fri May  6 19:10:25 EDT 2022

 -------------------- exptvl.x ------------------------
  === dipole moment === 
                     X               Y               Z   
   orign x       0.00000000      0.00000000      0.00000000
   orign y       0.00000000      0.00000000      0.00000000
   orign z       0.00000000      0.00000000      0.00000000
   nuclear      -0.23113748     -0.68052606      0.00000000
   electronic    0.44527785      3.52023131      0.00000000
   total         0.21414037      2.83970525      0.00000000
   total Dipole moment =   7.23831122    Debye
 --------------------------------------------------- 
  --- ci properties for state 3 of  DRT 1 ----
starting exptvl.x -m 200000  at Fri May  6 19:10:25 EDT 2022

 -------------------- exptvl.x ------------------------
  === dipole moment === 
                     X               Y               Z   
   orign x       0.00000000      0.00000000      0.00000000
   orign y       0.00000000      0.00000000      0.00000000
   orign z       0.00000000      0.00000000      0.00000000
   nuclear      -0.23113748     -0.68052606      0.00000000
   electronic    0.19258710     -0.71725662      0.00000000
   total        -0.03855038     -1.39778268      0.00000000
   total Dipole moment =   3.55416367    Debye
 --------------------------------------------------- 
  --- ci properties for state 4 of  DRT 1 ----
starting exptvl.x -m 200000  at Fri May  6 19:10:25 EDT 2022

 -------------------- exptvl.x ------------------------
  === dipole moment === 
                     X               Y               Z   
   orign x       0.00000000      0.00000000      0.00000000
   orign y       0.00000000      0.00000000      0.00000000
   orign z       0.00000000      0.00000000      0.00000000
   nuclear      -0.23113748     -0.68052606      0.00000000
   electronic    0.37804722      4.33203722      0.00000000
   total         0.14690974      3.65151116      0.00000000
   total Dipole moment =   9.28873337    Debye
 --------------------------------------------------- 
  --- ci properties for state 1 of  DRT 2 ----
starting exptvl.x -m 200000  at Fri May  6 19:10:26 EDT 2022

 -------------------- exptvl.x ------------------------
  === dipole moment === 
                     X               Y               Z   
   orign x       0.00000000      0.00000000      0.00000000
   orign y       0.00000000      0.00000000      0.00000000
   orign z       0.00000000      0.00000000      0.00000000
   nuclear      -0.23113748     -0.68052606      0.00000000
   electronic    0.50717854      3.42377104      0.00000000
   total         0.27604106      2.74324498      0.00000000
   total Dipole moment =   7.00785216    Debye
 --------------------------------------------------- 
  --- ci properties for state 2 of  DRT 2 ----
starting exptvl.x -m 200000  at Fri May  6 19:10:26 EDT 2022

 -------------------- exptvl.x ------------------------
  === dipole moment === 
                     X               Y               Z   
   orign x       0.00000000      0.00000000      0.00000000
   orign y       0.00000000      0.00000000      0.00000000
   orign z       0.00000000      0.00000000      0.00000000
   nuclear      -0.23113748     -0.68052606      0.00000000
   electronic    0.18687334     -0.38571351      0.00000000
   total        -0.04426414     -1.06623957      0.00000000
   total Dipole moment =   2.71244771    Debye
 --------------------------------------------------- 
  --- ci properties for state 3 of  DRT 2 ----
starting exptvl.x -m 200000  at Fri May  6 19:10:27 EDT 2022

 -------------------- exptvl.x ------------------------
  === dipole moment === 
                     X               Y               Z   
   orign x       0.00000000      0.00000000      0.00000000
   orign y       0.00000000      0.00000000      0.00000000
   orign z       0.00000000      0.00000000      0.00000000
   nuclear      -0.23113748     -0.68052606      0.00000000
   electronic    0.19730924     -1.02308705      0.00000000
   total        -0.03382824     -1.70361311      0.00000000
   total Dipole moment =   4.33101050    Debye
 --------------------------------------------------- 
  --- ci properties for state 4 of  DRT 2 ----
starting exptvl.x -m 200000  at Fri May  6 19:10:27 EDT 2022

 -------------------- exptvl.x ------------------------
  === dipole moment === 
                     X               Y               Z   
   orign x       0.00000000      0.00000000      0.00000000
   orign y       0.00000000      0.00000000      0.00000000
   orign z       0.00000000      0.00000000      0.00000000
   nuclear      -0.23113748     -0.68052606      0.00000000
   electronic    0.19916642     -0.52294877      0.00000000
   total        -0.03197106     -1.20347483      0.00000000
   total Dipole moment =   3.06001015    Debye
 --------------------------------------------------- 
 starting mo_convert.x at Fri May  6 19:10:27 EDT 2022

 -------------------- mo_convert.x ------------------------
 --------------------------------------------------- 
 starting pymolcas molcas.input.molden > molcas.output.molden at Fri May  6 19:10:28 EDT 2022

Generating link ln -s ./molcas.OrdInt ORDINT 
 -------------------- molden ------------------------
 --------------------------------------------------- 
 starting mo_convert.x at Fri May  6 19:10:55 EDT 2022

 -------------------- mo_convert.x ------------------------
 --------------------------------------------------- 
 starting pymolcas molcas.input.molden > molcas.output.molden at Fri May  6 19:10:55 EDT 2022

Generating link ln -s ./molcas.OrdInt ORDINT 
 -------------------- molden ------------------------
 --------------------------------------------------- 
 starting mo_convert.x at Fri May  6 19:11:16 EDT 2022

 -------------------- mo_convert.x ------------------------
 --------------------------------------------------- 
 starting pymolcas molcas.input.molden > molcas.output.molden at Fri May  6 19:11:16 EDT 2022

Generating link ln -s ./molcas.OrdInt ORDINT 
 -------------------- molden ------------------------
 --------------------------------------------------- 
 starting mo_convert.x at Fri May  6 19:11:31 EDT 2022

 -------------------- mo_convert.x ------------------------
 --------------------------------------------------- 
 starting pymolcas molcas.input.molden > molcas.output.molden at Fri May  6 19:11:32 EDT 2022

Generating link ln -s ./molcas.OrdInt ORDINT 
 -------------------- molden ------------------------
 --------------------------------------------------- 
 starting mo_convert.x at Fri May  6 19:11:46 EDT 2022

 -------------------- mo_convert.x ------------------------
 --------------------------------------------------- 
 starting pymolcas molcas.input.molden > molcas.output.molden at Fri May  6 19:11:47 EDT 2022

Generating link ln -s ./molcas.OrdInt ORDINT 
 -------------------- molden ------------------------
 --------------------------------------------------- 
 starting mo_convert.x at Fri May  6 19:12:02 EDT 2022

 -------------------- mo_convert.x ------------------------
 --------------------------------------------------- 
 starting pymolcas molcas.input.molden > molcas.output.molden at Fri May  6 19:12:02 EDT 2022

Generating link ln -s ./molcas.OrdInt ORDINT 
 -------------------- molden ------------------------
 --------------------------------------------------- 
 starting mo_convert.x at Fri May  6 19:12:17 EDT 2022

 -------------------- mo_convert.x ------------------------
 --------------------------------------------------- 
 starting pymolcas molcas.input.molden > molcas.output.molden at Fri May  6 19:12:17 EDT 2022

Generating link ln -s ./molcas.OrdInt ORDINT 
 -------------------- molden ------------------------
 --------------------------------------------------- 
 starting mo_convert.x at Fri May  6 19:12:31 EDT 2022

 -------------------- mo_convert.x ------------------------
 --------------------------------------------------- 
 starting pymolcas molcas.input.molden > molcas.output.molden at Fri May  6 19:12:32 EDT 2022

Generating link ln -s ./molcas.OrdInt ORDINT 
 -------------------- molden ------------------------
 --------------------------------------------------- 
 starting mo_convert.x at Fri May  6 19:12:46 EDT 2022

 -------------------- mo_convert.x ------------------------
 --------------------------------------------------- 
 starting pymolcas molcas.input.molden > molcas.output.molden at Fri May  6 19:12:46 EDT 2022

Generating link ln -s ./molcas.OrdInt ORDINT 
 -------------------- molden ------------------------
 --------------------------------------------------- 
 starting mo_convert.x at Fri May  6 19:13:02 EDT 2022

 -------------------- mo_convert.x ------------------------
 --------------------------------------------------- 
 starting pymolcas molcas.input.molden > molcas.output.molden at Fri May  6 19:13:02 EDT 2022

Generating link ln -s ./molcas.OrdInt ORDINT 
 -------------------- molden ------------------------
 --------------------------------------------------- 
 starting mo_convert.x at Fri May  6 19:13:17 EDT 2022

 -------------------- mo_convert.x ------------------------
 --------------------------------------------------- 
 starting pymolcas molcas.input.molden > molcas.output.molden at Fri May  6 19:13:18 EDT 2022

Generating link ln -s ./molcas.OrdInt ORDINT 
 -------------------- molden ------------------------
 --------------------------------------------------- 
 starting mo_convert.x at Fri May  6 19:13:32 EDT 2022

 -------------------- mo_convert.x ------------------------
 --------------------------------------------------- 
 starting pymolcas molcas.input.molden > molcas.output.molden at Fri May  6 19:13:32 EDT 2022

Generating link ln -s ./molcas.OrdInt ORDINT 
 -------------------- molden ------------------------
 --------------------------------------------------- 
 starting mo_convert.x at Fri May  6 19:13:47 EDT 2022

 -------------------- mo_convert.x ------------------------
 --------------------------------------------------- 
 starting pymolcas molcas.input.molden > molcas.output.molden at Fri May  6 19:13:48 EDT 2022

Generating link ln -s ./molcas.OrdInt ORDINT 
 -------------------- molden ------------------------
 --------------------------------------------------- 
 starting mo_convert.x at Fri May  6 19:14:02 EDT 2022

 -------------------- mo_convert.x ------------------------
 --------------------------------------------------- 
 starting pymolcas molcas.input.molden > molcas.output.molden at Fri May  6 19:14:02 EDT 2022

Generating link ln -s ./molcas.OrdInt ORDINT 
 -------------------- molden ------------------------
 --------------------------------------------------- 
 

 +++++++++++ STARTING GRADIENTS AND NAD. COUPLINGS CALCULATION +++++++++++ 

 Using new transition density code ... 
INFO: this is a frozen core gradient calculation
starting cidrt.x  -m 200000 < cidrtin.cigrd > cidrtls.cigrd at Fri May  6 19:14:17 EDT 2022

 -------------------- cidrt.x ------------------------
 total number of orbitals            :   246
 number of frozen core orbitals      :    18
 number of frozen virtual orbitals   :     0
 number of internal orbitals         :    14
 number of external orbitals         :   214
 spatial symmetry:   a  
 
 total number of configurations  282461366
 number of reference configurations  1666
 --------------------------------------------------- 
 starting tran.x -m 200000  at Fri May  6 19:14:24 EDT 2022

 -------------------- tran.x ------------------------
 --------------------------------------------------- 
 ---- Computing 8 gradient(s)  ----

 --- Computing gradient for DRT:1, State; 1

starting cigrd.x -m 200000 at Fri May  6 19:20:01 EDT 2022

 -------------------- cigrd.x ------------------------
 Total energy (ciudg) :  -286.073256149319 
  Effective energy     :  -286.073256162724 
  Delta E              :     0.000000013405 
  --------------------------------------------------- 
 starting tran.x -m 200000  at Fri May  6 19:26:59 EDT 2022

 -------------------- tran.x ------------------------
 --------------------------------------------------- 
 starting pymolcas molcas.input.alaska > molcas.output.alaska  at Fri May  6 19:32:17 EDT 2022

Generating link ln -s ./molcas.OrdInt ORDINT 
 -------------------- alaska ------------------------
 --------------------------------------------------- 
 cartesian gradient by alaska (MOLCAS)

 === Gradient of DRT 1, state 1 === 
   0.581793D-01   0.113507D+00   0.298892D-08
   0.676221D-02  -0.678313D-01  -0.141022D-07
  -0.282048D-01   0.246311D-01   0.491058D-08
   0.262818D-01   0.288859D-01  -0.901607D-08
  -0.145086D-01  -0.203873D-01   0.136383D-07
   0.164138D-01  -0.209536D-01   0.141570D-07
  -0.726704D-03   0.210395D-02  -0.908806D-08
  -0.828157D-01  -0.500127D-01  -0.135369D-08
   0.186457D-01  -0.922538D-02  -0.603829D-09
   0.340666D-02   0.110813D-02   0.389944D-08
  -0.323695D-02   0.110779D-02  -0.380084D-09
   0.963449D-03  -0.128536D-02  -0.326528D-08
  -0.118120D-02  -0.106655D-02   0.252059D-12
   0.210448D-04  -0.581568D-03  -0.178525D-08
===================================
 --- Computing gradient for DRT:1, State; 2

starting cigrd.x -m 200000 at Fri May  6 19:33:38 EDT 2022

 -------------------- cigrd.x ------------------------
 Total energy (ciudg) :  -285.932647533504 
  Effective energy     :  -285.932647546049 
  Delta E              :     0.000000012545 
  --------------------------------------------------- 
 starting tran.x -m 200000  at Fri May  6 19:42:55 EDT 2022

 -------------------- tran.x ------------------------
 --------------------------------------------------- 
 starting pymolcas molcas.input.alaska > molcas.output.alaska  at Fri May  6 19:48:10 EDT 2022

Generating link ln -s ./molcas.OrdInt ORDINT 
 -------------------- alaska ------------------------
 --------------------------------------------------- 
 cartesian gradient by alaska (MOLCAS)

 === Gradient of DRT 1, state 2 === 
   0.459724D-01   0.270157D-01  -0.299091D-08
  -0.141928D-06  -0.892595D-05  -0.816682D-08
   0.180998D-07   0.224489D-05   0.695954D-08
   0.963110D-06   0.192419D-05  -0.123758D-07
   0.133668D-06   0.343691D-06   0.123206D-07
  -0.194312D-05   0.304047D-05   0.126878D-07
   0.193021D-05  -0.130489D-05  -0.117410D-07
  -0.459771D-01  -0.270121D-01  -0.983832D-09
   0.284418D-05  -0.617812D-06   0.919600D-09
   0.784927D-06   0.693717D-07   0.544267D-08
   0.413009D-06   0.175126D-06  -0.100837D-08
  -0.277526D-06   0.304542D-06  -0.273221D-08
  -0.146627D-06  -0.143068D-06   0.156156D-08
   0.784797D-07  -0.717390D-06   0.107242D-09
===================================
 --- Computing gradient for DRT:1, State; 3

starting cigrd.x -m 200000 at Fri May  6 19:49:27 EDT 2022

 -------------------- cigrd.x ------------------------
 Total energy (ciudg) :  -285.894781691184 
  Effective energy     :  -285.894781705825 
  Delta E              :     0.000000014641 
  --------------------------------------------------- 
 starting tran.x -m 200000  at Fri May  6 19:57:03 EDT 2022

 -------------------- tran.x ------------------------
 --------------------------------------------------- 
 starting pymolcas molcas.input.alaska > molcas.output.alaska  at Fri May  6 20:02:13 EDT 2022

Generating link ln -s ./molcas.OrdInt ORDINT 
 -------------------- alaska ------------------------
 --------------------------------------------------- 
 cartesian gradient by alaska (MOLCAS)

 === Gradient of DRT 1, state 3 === 
   0.600111D-01   0.974369D-01   0.463999D-08
   0.668389D-02  -0.540990D-01  -0.159333D-07
  -0.373256D-02   0.616728D-01   0.370156D-08
   0.168049D-02   0.650122D-01  -0.339651D-08
   0.118445D-01  -0.525372D-01   0.100163D-07
  -0.104852D-01  -0.525615D-01   0.227343D-07
  -0.741907D-04  -0.426028D-02  -0.215878D-07
  -0.824193D-01  -0.509246D-01  -0.166041D-08
   0.164966D-01  -0.923040D-02  -0.115740D-08
   0.244729D-02   0.952887D-03   0.422747D-08
  -0.223798D-02   0.939246D-03   0.678425D-09
  -0.487888D-03  -0.107713D-02  -0.166785D-08
   0.248376D-03  -0.799253D-03  -0.501285D-09
   0.248556D-04  -0.524586D-03  -0.935270D-10
===================================
 --- Computing gradient for DRT:1, State; 4

starting cigrd.x -m 200000 at Fri May  6 20:03:30 EDT 2022

 -------------------- cigrd.x ------------------------
 Total energy (ciudg) :  -285.849577262296 
  Effective energy     :  -285.849577274210 
  Delta E              :     0.000000011914 
  --------------------------------------------------- 
 starting tran.x -m 200000  at Fri May  6 20:10:32 EDT 2022

 -------------------- tran.x ------------------------
 --------------------------------------------------- 
 starting pymolcas molcas.input.alaska > molcas.output.alaska  at Fri May  6 20:15:37 EDT 2022

Generating link ln -s ./molcas.OrdInt ORDINT 
 -------------------- alaska ------------------------
 --------------------------------------------------- 
 cartesian gradient by alaska (MOLCAS)

 === Gradient of DRT 1, state 4 === 
   0.522377D-01   0.538387D-01  -0.229417D-08
   0.306037D-02  -0.270416D-02  -0.141460D-07
  -0.205889D-01   0.635923D-01   0.586088D-08
   0.189962D-01   0.641688D-01  -0.101508D-07
  -0.239353D-01  -0.657527D-01   0.900592D-08
   0.263388D-01  -0.672488D-01   0.135475D-07
  -0.216391D-02  -0.549677D-02  -0.504323D-09
  -0.627951D-01  -0.367441D-01  -0.983187D-09
   0.860146D-02  -0.353745D-02   0.860413D-09
  -0.335615D-03  -0.189511D-03   0.272941D-08
   0.516435D-03  -0.197894D-03  -0.208566D-08
  -0.270563D-03  -0.577950D-03  -0.294490D-08
   0.316568D-03  -0.516586D-03   0.996744D-09
   0.219382D-04   0.136602D-02   0.108217D-09
===================================
 --- Computing gradient for DRT:2, State; 1

starting cigrd.x -m 200000 at Fri May  6 20:16:58 EDT 2022

 -------------------- cigrd.x ------------------------
 Total energy (ciudg) :  -285.937272991501 
  Effective energy     :  -285.937273004313 
  Delta E              :     0.000000012812 
  --------------------------------------------------- 
 starting tran.x -m 200000  at Fri May  6 20:23:57 EDT 2022

 -------------------- tran.x ------------------------
 --------------------------------------------------- 
 starting pymolcas molcas.input.alaska > molcas.output.alaska  at Fri May  6 20:29:10 EDT 2022

Generating link ln -s ./molcas.OrdInt ORDINT 
 -------------------- alaska ------------------------
 --------------------------------------------------- 
 cartesian gradient by alaska (MOLCAS)

 === Gradient of DRT 2, state 1 === 
   0.402846D-01   0.262596D-01  -0.609295D-08
  -0.134110D-02  -0.722755D-02  -0.267450D-08
  -0.183551D-02   0.280950D-02   0.686292D-08
   0.248451D-02   0.234053D-02  -0.153039D-07
  -0.152111D-02  -0.258346D-02   0.113463D-07
   0.128382D-02  -0.272399D-02   0.122177D-07
  -0.931821D-04   0.163818D-02  -0.807349D-08
  -0.354505D-01  -0.210488D-01  -0.802924D-09
  -0.356615D-02   0.835504D-03   0.124488D-08
  -0.177552D-03   0.488025D-04   0.472523D-08
  -0.646915D-04   0.276980D-04  -0.218224D-08
   0.750669D-04  -0.105766D-03  -0.291905D-08
  -0.634151D-04  -0.163755D-03   0.101651D-08
  -0.148270D-04  -0.106461D-03   0.635544D-09
===================================
 --- Computing gradient for DRT:2, State; 2

starting cigrd.x -m 200000 at Fri May  6 20:30:28 EDT 2022

 -------------------- cigrd.x ------------------------
 Total energy (ciudg) :  -285.925827598859 
  Effective energy     :  -285.925827612099 
  Delta E              :     0.000000013240 
  --------------------------------------------------- 
 starting tran.x -m 200000  at Fri May  6 20:37:56 EDT 2022

 -------------------- tran.x ------------------------
 --------------------------------------------------- 
 starting pymolcas molcas.input.alaska > molcas.output.alaska  at Fri May  6 20:43:14 EDT 2022

Generating link ln -s ./molcas.OrdInt ORDINT 
 -------------------- alaska ------------------------
 --------------------------------------------------- 
 cartesian gradient by alaska (MOLCAS)

 === Gradient of DRT 2, state 2 === 
   0.587243D-01   0.132350D+00   0.118242D-08
   0.958075D-03  -0.471609D-01  -0.161763D-07
   0.103100D-01  -0.198439D-01   0.549418D-08
  -0.688065D-02  -0.152466D-01  -0.884180D-08
   0.351210D-01   0.233807D-01   0.134431D-07
  -0.390077D-01   0.256925D-01   0.168872D-07
   0.420377D-02  -0.404703D-01  -0.106710D-07
  -0.834924D-01  -0.491994D-01  -0.942084D-09
   0.199650D-01  -0.870554D-02  -0.553623D-09
   0.434092D-02  -0.384689D-03   0.498522D-08
  -0.420001D-02  -0.321987D-03  -0.183908D-08
   0.785080D-03  -0.369435D-03  -0.244100D-08
  -0.959197D-03  -0.680068D-04   0.152575D-08
   0.131952D-03   0.347767D-03  -0.205289D-08
===================================
 --- Computing gradient for DRT:2, State; 3

starting cigrd.x -m 200000 at Fri May  6 20:44:31 EDT 2022

 -------------------- cigrd.x ------------------------
 Total energy (ciudg) :  -285.913882951739 
  Effective energy     :  -285.913882965977 
  Delta E              :     0.000000014238 
  --------------------------------------------------- 
 starting tran.x -m 200000  at Fri May  6 20:51:47 EDT 2022

 -------------------- tran.x ------------------------
 --------------------------------------------------- 
 starting pymolcas molcas.input.alaska > molcas.output.alaska  at Fri May  6 20:57:01 EDT 2022

Generating link ln -s ./molcas.OrdInt ORDINT 
 -------------------- alaska ------------------------
 --------------------------------------------------- 
 cartesian gradient by alaska (MOLCAS)

 === Gradient of DRT 2, state 3 === 
   0.605012D-01   0.764268D-01   0.292071D-08
   0.122506D-01  -0.370475D-01  -0.256504D-07
  -0.564863D-02   0.619259D-01   0.172946D-08
  -0.225459D-02   0.643441D-01  -0.444729D-08
   0.959224D-02  -0.598717D-01   0.172424D-07
  -0.280184D-02  -0.617249D-01   0.272796D-07
  -0.416432D-02   0.166828D-01  -0.216564D-07
  -0.825838D-01  -0.518205D-01  -0.129744D-08
   0.151793D-01  -0.929790D-02  -0.471346D-09
   0.187716D-02   0.164670D-02   0.470182D-08
  -0.154448D-02   0.152378D-02  -0.114028D-08
  -0.906692D-03  -0.866352D-03  -0.409233D-09
   0.584034D-03  -0.680985D-03   0.114529D-08
  -0.801755D-04  -0.124013D-02   0.530838D-10
===================================
 --- Computing gradient for DRT:2, State; 4

starting cigrd.x -m 200000 at Fri May  6 20:58:21 EDT 2022

 -------------------- cigrd.x ------------------------
 Total energy (ciudg) :  -285.884404649700 
  Effective energy     :  -285.884404663053 
  Delta E              :     0.000000013353 
[...]
   2.724369E-07  -3.451535E-07   1.320315E+00
  -3.073687E-08   1.207628E-07  -2.978820E-01
  -1.193949E-07  -4.317018E-08  -7.688920E-01
  -2.065117E-08   7.697943E-08  -4.194117E-01
   3.932325E-08   8.027247E-08  -4.492858E-01
   1.031108E-08  -1.593269E-08   4.120947E-01
   1.811437E-07  -1.109992E-08  -7.574398E-01
   5.692167E-08   4.482281E-08  -3.624451E-01
  -1.301051E-08   6.348713E-08   9.474168E-02
   8.312093E-09  -7.344540E-08   8.704330E-02
  -2.968294E-09   5.880457E-10   1.616170E-02
  -5.813561E-09   1.707616E-08   8.143750E-02
  -1.876917E-08   5.962679E-09   6.793421E-02
===================================

 Norm of the nonadiabatic coupling vector: 
 |h(drt2.state1,drt2.state2)|= 2.1732433928308 

 Cross-check of the non-adiabatic coupling term:
  DeltaE= -0.0114453926000238

  <L>*dE form CIGRD   :   -0.0000000000     0.0000000000    -0.0003593052
  <L>*dE form NADCOUPL:    0.0025564414    -0.0004778155     0.0000000063
 -------------------------------------------------------------------------
  Difference          :   -0.0025564414     0.0004778155    -0.0003593115

 NOTE: This test is meaningless at a point of conical intersection!


 -------- NAD. COUPLING for DRT:2 STATE:1 AND DRT:2 STATE:3 --------
opening file =ciudgls.drt2.sp
opening file =ciudgls.drt2.sp
extracted: energy1= -285.9372729913   energy2=-285.9138829516   deltae=-0.0233900397000184
starting cigrd.x -m 200000 at Fri May  6 22:50:56 EDT 2022

 -------------------- cigrd.x ------------------------
 Total energy (ciudg) :     0.000000000026 
  Effective energy     :     0.000000000003 
  Delta E              :     0.000000000023 
  --------------------------------------------------- 
 starting tran.x -m 200000  at Fri May  6 22:57:42 EDT 2022

 -------------------- tran.x ------------------------
 --------------------------------------------------- 
  adding keyword NONUC to alaska input
starting pymolcas molcas.input.alaska > molcas.output.alaska  at Fri May  6 23:02:27 EDT 2022

Generating link ln -s ./molcas.OrdInt ORDINT 
 -------------------- alaska ------------------------
 --------------------------------------------------- 
 cartesian gradient by alaska (MOLCAS)

 Calculating the Dx(r,s) term of D[CSF] nonadiabatic coupling term.
dxcalc: INPUT LINE SEPARATOR 
 
starting tran.x -m 200000  at Fri May  6 23:03:28 EDT 2022

 -------------------- tran.x ------------------------
 --------------------------------------------------- 
 starting tdmrunfile.x > tdmrunfilels at Fri May  6 23:03:29 EDT 2022

 -------------------- tdmrunfile.x ------------------------
 --------------------------------------------------- 
 starting pymolcas molcas.input.alaska > molcas.output.alaska  at Fri May  6 23:03:29 EDT 2022

Generating link ln -s ./molcas.OrdInt ORDINT 
 -------------------- alaska ------------------------
 --------------------------------------------------- 
 
 === Non-adiabatic coupling for DRT 2 STATE 1 and DRT 2 STATE 3 === 
   1.165441E-07  -1.698985E-07  -1.184310E-01
  -1.178950E-07   6.702418E-09   3.500558E-02
   1.160674E-08  -2.199686E-08   1.728620E-01
  -4.767528E-09   6.586635E-08  -5.552282E-02
   1.852170E-09   1.504443E-08  -1.039570E-01
  -1.816012E-08   8.525348E-09   4.358866E-02
   2.852264E-08  -1.328983E-08   4.091867E-02
   2.100259E-08   2.926435E-08   1.378303E-01
  -6.151295E-08   3.811687E-08  -9.058497E-02
  -5.445668E-09   2.902424E-09  -1.239336E-01
   3.104084E-08   2.176046E-08   1.153702E-01
  -3.201017E-09   1.275352E-08   7.937371E-03
  -5.154964E-09   3.595527E-09  -6.077973E-02
   5.570134E-09   6.556057E-10   4.405749E-04
===================================

 Norm of the nonadiabatic coupling vector: 
 |h(drt2.state1,drt2.state3)|= 0.349609357694376 

 Cross-check of the non-adiabatic coupling term:
  DeltaE= -0.0233900397000184

  <L>*dE form CIGRD   :   -0.0000000000     0.0000000000    -0.0007342835
  <L>*dE form NADCOUPL:    0.0001780876     0.0020338080    -0.0000000067
 -------------------------------------------------------------------------
  Difference          :   -0.0001780876    -0.0020338080    -0.0007342769

 NOTE: This test is meaningless at a point of conical intersection!


 -------- NAD. COUPLING for DRT:2 STATE:1 AND DRT:2 STATE:4 --------
opening file =ciudgls.drt2.sp
opening file =ciudgls.drt2.sp
extracted: energy1= -285.9372729913   energy2=-285.8844046496   deltae=-0.0528683416999911
starting cigrd.x -m 200000 at Fri May  6 23:04:30 EDT 2022

 -------------------- cigrd.x ------------------------
 Total energy (ciudg) :    -0.000000000237 
  Effective energy     :     0.000000001361 
  Delta E              :    -0.000000001598 
  --------------------------------------------------- 
 starting tran.x -m 200000  at Fri May  6 23:11:29 EDT 2022

 -------------------- tran.x ------------------------
 --------------------------------------------------- 
  adding keyword NONUC to alaska input
starting pymolcas molcas.input.alaska > molcas.output.alaska  at Fri May  6 23:16:11 EDT 2022

Generating link ln -s ./molcas.OrdInt ORDINT 
 -------------------- alaska ------------------------
 --------------------------------------------------- 
 cartesian gradient by alaska (MOLCAS)

 Calculating the Dx(r,s) term of D[CSF] nonadiabatic coupling term.
dxcalc: INPUT LINE SEPARATOR 
 
starting tran.x -m 200000  at Fri May  6 23:17:09 EDT 2022

 -------------------- tran.x ------------------------
 --------------------------------------------------- 
 starting tdmrunfile.x > tdmrunfilels at Fri May  6 23:17:09 EDT 2022

 -------------------- tdmrunfile.x ------------------------
 --------------------------------------------------- 
 starting pymolcas molcas.input.alaska > molcas.output.alaska  at Fri May  6 23:17:09 EDT 2022

Generating link ln -s ./molcas.OrdInt ORDINT 
 -------------------- alaska ------------------------
 --------------------------------------------------- 
 
 === Non-adiabatic coupling for DRT 2 STATE 1 and DRT 2 STATE 4 === 
   6.076963E-08   4.733749E-10  -4.272737E-02
  -2.405993E-08   2.095825E-08  -7.149823E-02
  -1.410099E-08   2.826119E-08   1.267739E-02
  -1.608281E-09  -4.459204E-09   3.958244E-02
   6.566524E-09  -1.381244E-08   3.626724E-02
   1.499487E-08  -5.316386E-09   3.792201E-02
  -5.674733E-09  -1.511922E-08  -3.395112E-02
  -3.264196E-08  -4.384943E-09   3.402564E-02
  -6.731221E-09  -4.910098E-09   1.623347E-02
   1.751814E-09  -2.083396E-10  -1.232053E-02
  -4.525103E-10   1.862578E-09  -1.141799E-02
   4.474243E-09  -2.337306E-09  -7.262266E-04
  -3.423296E-09   5.597444E-10  -6.085709E-03
   1.472736E-10  -1.573142E-09  -6.601566E-03
===================================

 Norm of the nonadiabatic coupling vector: 
 |h(drt2.state1,drt2.state4)|= 0.119815521985315 

 Cross-check of the non-adiabatic coupling term:
  DeltaE= -0.0528683416999911

  <L>*dE form CIGRD   :   -0.0000000000     0.0000000000    -0.0016596959
  <L>*dE form NADCOUPL:   -0.0019345475     0.0004318486     0.0000000035
 -------------------------------------------------------------------------
  Difference          :    0.0019345475    -0.0004318486    -0.0016596994

 NOTE: This test is meaningless at a point of conical intersection!


 -------- NAD. COUPLING for DRT:2 STATE:2 AND DRT:2 STATE:3 --------
opening file =ciudgls.drt2.sp
opening file =ciudgls.drt2.sp
extracted: energy1= -285.9258275987   energy2=-285.9138829516   deltae=-0.0119446470999947
starting cigrd.x -m 200000 at Fri May  6 23:18:09 EDT 2022

 -------------------- cigrd.x ------------------------
 Total energy (ciudg) :    -0.000000001658 
  Effective energy     :    -0.000000000858 
  Delta E              :    -0.000000000800 
  --------------------------------------------------- 
 starting tran.x -m 200000  at Fri May  6 23:25:21 EDT 2022

 -------------------- tran.x ------------------------
 --------------------------------------------------- 
  adding keyword NONUC to alaska input
starting pymolcas molcas.input.alaska > molcas.output.alaska  at Fri May  6 23:30:18 EDT 2022

Generating link ln -s ./molcas.OrdInt ORDINT 
 -------------------- alaska ------------------------
 --------------------------------------------------- 
 cartesian gradient by alaska (MOLCAS)

 Calculating the Dx(r,s) term of D[CSF] nonadiabatic coupling term.
dxcalc: INPUT LINE SEPARATOR 
 
starting tran.x -m 200000  at Fri May  6 23:31:24 EDT 2022

 -------------------- tran.x ------------------------
 --------------------------------------------------- 
 starting tdmrunfile.x > tdmrunfilels at Fri May  6 23:31:24 EDT 2022

 -------------------- tdmrunfile.x ------------------------
 --------------------------------------------------- 
 starting pymolcas molcas.input.alaska > molcas.output.alaska  at Fri May  6 23:31:24 EDT 2022

Generating link ln -s ./molcas.OrdInt ORDINT 
 -------------------- alaska ------------------------
 --------------------------------------------------- 
 
 === Non-adiabatic coupling for DRT 2 STATE 2 and DRT 2 STATE 3 === 
   1.037535E+00  -1.781999E-01   2.973153E-07
  -7.529034E+00   4.530821E-03   1.793057E-07
   3.597038E+00  -4.726162E-01  -1.917782E-07
   3.658087E+00   9.975983E-01   3.747784E-07
  -3.569764E+00  -1.897075E+00  -2.626067E-07
  -3.392969E+00   1.379259E+00  -2.739371E-07
   6.000647E+00   1.707747E-01   2.139199E-07
   4.783816E-04   1.153611E-02  -1.130709E-08
  -1.578037E-02  -1.981180E-02  -8.139091E-08
  -2.518337E-02  -6.347942E-02  -9.888048E-08
  -1.071786E-02   7.366365E-02  -8.816204E-08
   4.393637E-02  -4.894484E-02  -8.516400E-09
   5.200717E-02   4.658381E-02  -3.067821E-09
   1.592299E-01  -3.709697E-03  -4.573000E-08
===================================

 Norm of the nonadiabatic coupling vector: 
 |h(drt2.state2,drt2.state3)|= 12.2952280258183 

 Cross-check of the non-adiabatic coupling term:
  DeltaE= -0.0119446470999947

  <L>*dE form CIGRD   :   -0.0000000000     0.0000000000    -0.0003749783
  <L>*dE form NADCOUPL:    0.0000000193     0.0000000149     0.0154541792
 -------------------------------------------------------------------------
  Difference          :   -0.0000000193    -0.0000000149    -0.0158291575

 NOTE: This test is meaningless at a point of conical intersection!


 -------- NAD. COUPLING for DRT:2 STATE:2 AND DRT:2 STATE:4 --------
opening file =ciudgls.drt2.sp
opening file =ciudgls.drt2.sp
extracted: energy1= -285.9258275987   energy2=-285.8844046496   deltae=-0.0414229490999674
starting cigrd.x -m 200000 at Fri May  6 23:32:28 EDT 2022

 -------------------- cigrd.x ------------------------
 Total energy (ciudg) :     0.000000000376 
  Effective energy     :     0.000000008945 
  Delta E              :    -0.000000008569 
  --------------------------------------------------- 
 starting tran.x -m 200000  at Fri May  6 23:39:14 EDT 2022

 -------------------- tran.x ------------------------
 --------------------------------------------------- 
  adding keyword NONUC to alaska input
starting pymolcas molcas.input.alaska > molcas.output.alaska  at Fri May  6 23:44:11 EDT 2022

Generating link ln -s ./molcas.OrdInt ORDINT 
 -------------------- alaska ------------------------
 --------------------------------------------------- 
 cartesian gradient by alaska (MOLCAS)

 Calculating the Dx(r,s) term of D[CSF] nonadiabatic coupling term.
dxcalc: INPUT LINE SEPARATOR 
 
starting tran.x -m 200000  at Fri May  6 23:45:15 EDT 2022

 -------------------- tran.x ------------------------
 --------------------------------------------------- 
 starting tdmrunfile.x > tdmrunfilels at Fri May  6 23:45:15 EDT 2022

 -------------------- tdmrunfile.x ------------------------
 --------------------------------------------------- 
 starting pymolcas molcas.input.alaska > molcas.output.alaska  at Fri May  6 23:45:16 EDT 2022

Generating link ln -s ./molcas.OrdInt ORDINT 
 -------------------- alaska ------------------------
 --------------------------------------------------- 
 
 === Non-adiabatic coupling for DRT 2 STATE 2 and DRT 2 STATE 4 === 
  -6.630332E-03   5.154000E-03  -5.077322E-08
   1.482525E-02   2.523589E-01   1.811582E-08
   2.912365E-01  -1.140727E+00   4.878810E-09
  -2.922288E-01  -1.144892E+00  -5.327870E-08
   3.850416E-01   1.212823E+00  -3.630796E-08
  -3.893048E-01   1.178286E+00   1.517778E-09
  -1.172602E-02  -4.217841E-01   6.494696E-08
   2.052199E-02   1.543710E-02   4.159942E-09
  -1.177705E-02   1.030507E-02   1.421446E-08
   1.751722E-02  -7.417639E-03   8.794538E-09
  -1.791815E-02  -7.355092E-03   1.970785E-08
   1.504226E-02   1.634722E-02  -2.956143E-08
  -1.443488E-02   1.680021E-02   3.770902E-08
   7.457626E-05   8.569767E-03  -4.133964E-09
===================================

 Norm of the nonadiabatic coupling vector: 
 |h(drt2.state2,drt2.state4)|= 2.48718310970877 

 Cross-check of the non-adiabatic coupling term:
  DeltaE= -0.0414229490999674

  <L>*dE form CIGRD   :   -0.0000000000     0.0000000000    -0.0013003906
  <L>*dE form NADCOUPL:   -0.0000000092     0.0000000117     0.0004485710
 -------------------------------------------------------------------------
  Difference          :    0.0000000092    -0.0000000117    -0.0017489616

 NOTE: This test is meaningless at a point of conical intersection!


 -------- NAD. COUPLING for DRT:2 STATE:3 AND DRT:2 STATE:4 --------
opening file =ciudgls.drt2.sp
opening file =ciudgls.drt2.sp
extracted: energy1= -285.9138829516   energy2=-285.8844046496   deltae=-0.0294783019999727
starting cigrd.x -m 200000 at Fri May  6 23:46:21 EDT 2022

 -------------------- cigrd.x ------------------------
 Total energy (ciudg) :     0.000000000782 
  Effective energy     :    -0.000000002370 
  Delta E              :     0.000000003152 
  --------------------------------------------------- 
 starting tran.x -m 200000  at Fri May  6 23:53:09 EDT 2022

 -------------------- tran.x ------------------------
 --------------------------------------------------- 
  adding keyword NONUC to alaska input
starting pymolcas molcas.input.alaska > molcas.output.alaska  at Fri May  6 23:58:09 EDT 2022

Generating link ln -s ./molcas.OrdInt ORDINT 
 -------------------- alaska ------------------------
 --------------------------------------------------- 
 cartesian gradient by alaska (MOLCAS)

 Calculating the Dx(r,s) term of D[CSF] nonadiabatic coupling term.
dxcalc: INPUT LINE SEPARATOR 
 
starting tran.x -m 200000  at Fri May  6 23:59:13 EDT 2022

 -------------------- tran.x ------------------------
 --------------------------------------------------- 
 starting tdmrunfile.x > tdmrunfilels at Fri May  6 23:59:13 EDT 2022

 -------------------- tdmrunfile.x ------------------------
 --------------------------------------------------- 
 starting pymolcas molcas.input.alaska > molcas.output.alaska  at Fri May  6 23:59:13 EDT 2022

Generating link ln -s ./molcas.OrdInt ORDINT 
 -------------------- alaska ------------------------
 --------------------------------------------------- 
 
 === Non-adiabatic coupling for DRT 2 STATE 3 and DRT 2 STATE 4 === 
   2.393187E-01   6.250928E-03   9.557385E-08
  -1.586971E+00  -7.095749E-03   3.183104E-08
   4.448746E-01  -9.462597E-02  -1.753214E-08
   4.317087E-01   4.064946E-02  -1.531274E-08
  -2.986785E-01  -7.841404E-01  -1.230021E-07
  -3.163739E-01   8.475386E-01   2.051805E-07
   1.067937E+00  -1.662253E-02  -9.228068E-08
  -3.068241E-03   2.407108E-02   2.661148E-09
  -3.986200E-03  -1.791659E-02  -2.769912E-08
   1.525612E-02   4.687165E-03  -2.250197E-08
   1.422533E-02  -4.831468E-03  -5.347334E-08
  -1.169536E-02   1.435431E-02  -1.636141E-08
  -1.310176E-02  -1.307328E-02   2.283884E-09
   1.014795E-02   7.832964E-04   3.065463E-08
===================================

 Norm of the nonadiabatic coupling vector: 
 |h(drt2.state3,drt2.state4)|= 2.37406657044602 

 Cross-check of the non-adiabatic coupling term:
  DeltaE= -0.0294783019999727

  <L>*dE form CIGRD   :   -0.0000000000     0.0000000000    -0.0009254123
  <L>*dE form NADCOUPL:    0.0000000068     0.0000000193    -0.0009221833
 -------------------------------------------------------------------------
  Difference          :   -0.0000000068    -0.0000000193    -0.0000032290

 NOTE: This test is meaningless at a point of conical intersection!



============== timings ===================

   unik.gets.x    
   mcdrt.x        
   mcuft.x        
 * mcscf.x          walltime    0:02:24
   mcpc.x         
   mcpc.x         
   mcpc.x         
   mcpc.x         
   exptvl.x       
   exptvl.x       
   exptvl.x       
   exptvl.x       
   cidrt.x        
 * cidrt.x          walltime    0:00:05
 * tran.x           walltime    0:05:06
 * pciudg.x -m 19000   walltime   16:50:20
 * cipc.x           walltime    0:00:11
 * pciudg.x -m 19000   walltime   35:50:38
 * cipc.x           walltime    0:00:21
 * reindex.x        walltime    0:03:59
 * pciudg.x -m 19000   walltime    1:47:37
 * transci.x        walltime    0:02:14
 * transci.x        walltime    0:02:12
 * transci.x        walltime    0:02:17
 * transci.x        walltime    0:02:13
 * transci.x        walltime    0:02:12
 * transci.x        walltime    0:02:13
 * transci.x        walltime    0:04:14
 * transci.x        walltime    0:04:03
 * transci.x        walltime    0:04:18
 * transci.x        walltime    0:04:06
 * transci.x        walltime    0:04:02
 * transci.x        walltime    0:04:04
   exptvl.x       
   exptvl.x       
   exptvl.x       
   exptvl.x       
   exptvl.x       
   exptvl.x       
   exptvl.x       
   exptvl.x       
   mo_convert.x   
   mo_convert.x   
   mo_convert.x   
   mo_convert.x   
   mo_convert.x   
   mo_convert.x   
   mo_convert.x   
   mo_convert.x   
   mo_convert.x   
   mo_convert.x   
   mo_convert.x   
   mo_convert.x   
   mo_convert.x   
   mo_convert.x   
 * cidrt.x          walltime    0:00:07
 * tran.x           walltime    0:05:37
 * cigrd.x          walltime    0:06:58
 * tran.x           walltime    0:05:17
 * cigrd.x          walltime    0:09:16
 * tran.x           walltime    0:05:14
 * cigrd.x          walltime    0:07:35
 * tran.x           walltime    0:05:09
 * cigrd.x          walltime    0:07:01
 * tran.x           walltime    0:05:04
 * cigrd.x          walltime    0:06:58
 * tran.x           walltime    0:05:12
 * cigrd.x          walltime    0:07:27
 * tran.x           walltime    0:05:17
 * cigrd.x          walltime    0:07:15
 * tran.x           walltime    0:05:14
 * cigrd.x          walltime    0:07:01
 * tran.x           walltime    0:05:14
 * cigrd.x          walltime    0:06:46
 * tran.x           walltime    0:05:07
   tran.x         
   tdmrunfile.x   
 * cigrd.x          walltime    0:07:01
 * tran.x           walltime    0:05:08
   tran.x         
   tdmrunfile.x   
 * cigrd.x          walltime    0:07:34
 * tran.x           walltime    0:04:57
   tran.x         
   tdmrunfile.x   
 * cigrd.x          walltime    0:07:11
 * tran.x           walltime    0:04:44
   tran.x         
   tdmrunfile.x   
 * cigrd.x          walltime    0:06:53
 * tran.x           walltime    0:04:59
   tran.x         
   tdmrunfile.x   
 * cigrd.x          walltime    0:07:20
 * tran.x           walltime    0:04:56
   tran.x         
   tdmrunfile.x   
 * cigrd.x          walltime    0:06:23
 * tran.x           walltime    0:04:55
   tran.x         
   tdmrunfile.x   
 * cigrd.x          walltime    0:06:45
 * tran.x           walltime    0:04:45
   tran.x         
   tdmrunfile.x   
 * cigrd.x          walltime    0:06:58
 * tran.x           walltime    0:04:42
   tran.x         
   tdmrunfile.x   
 * cigrd.x          walltime    0:07:11
 * tran.x           walltime    0:04:57
   tran.x         
   tdmrunfile.x   
 * cigrd.x          walltime    0:06:45
 * tran.x           walltime    0:04:56
   tran.x         
   tdmrunfile.x   
 * cigrd.x          walltime    0:06:47
 * tran.x           walltime    0:05:00
   tran.x         
   tdmrunfile.x   

==========================================

