[Molden Format]
[Atoms] AU
  N     1    7    -4.3947294300    0.0991612700    0.0000000000        
  C     2    6    -1.7793157100   -0.0302296300    0.0000000000        
  C     3    6    -0.4694062400   -0.0063844000   -2.3533798400        
  C     4    6    -0.4694062400   -0.0063844000    2.3533798400        
  C     5    6     2.2141403800    0.0044822200   -2.3290544300        
  C     6    6     2.2141403800    0.0044822200    2.3290544300        
  C     7    6     3.5082657500    0.0051058900    0.0000000000        
  H     8    1    -5.2456596200   -0.5260775200   -1.6043229900        
  H     9    1    -5.2456596200   -0.5260775200    1.6043229900        
  H    10    1    -1.5060850400    0.0139451200   -4.0904831700        
  H    11    1    -1.5060850400    0.0139451200    4.0904831700        
  H    12    1     3.2534251200    0.0120346000   -4.0656015100        
  H    13    1     3.2534251200    0.0120346000    4.0656015100        
  H    14    1     5.5374603900    0.0167086400    0.0000000000        
[5D]
[7F]
[GTO]
  1  0
   s    12 1.00
  0.114200D+05  0.172695D-04
  0.171200D+04  0.134411D-03
  0.389300D+03  0.694561D-03
  0.110000D+03  0.278531D-02
  0.355700D+02  0.863457D-02
  0.125400D+02  0.199805D-01
  0.464400D+01  0.262908D-01
  0.129300D+01 -0.243845D-01
  0.511800D+00 -0.924934D-01
  0.178700D+00 -0.339683D+00
  0.246240D-01  0.345111D+00
  0.112530D-01  0.752750D+00
   s    10 1.00
  0.114200D+05  0.523000D-03
  0.171200D+04  0.404500D-02
  0.389300D+03  0.207750D-01
  0.110000D+03  0.807269D-01
  0.355700D+02  0.233074D+00
  0.125400D+02  0.433501D+00
  0.464400D+01  0.347472D+00
  0.129300D+01  0.412620D-01
  0.511800D+00 -0.850799D-02
  0.178700D+00  0.238400D-02
   s    10 1.00
  0.114200D+05 -0.115000D-03
  0.171200D+04 -0.895000D-03
  0.389300D+03 -0.462400D-02
  0.110000D+03 -0.185280D-01
  0.355700D+02 -0.573390D-01
  0.125400D+02 -0.132076D+00
  0.464400D+01 -0.172510D+00
  0.129300D+01  0.151814D+00
  0.511800D+00  0.599944D+00
  0.178700D+00  0.387462D+00
   s     1 1.00
  0.129300D+01  0.100000D+01
   s     1 1.00
  0.178700D+00  0.100000D+01
   p     5 1.00
  0.266300D+02  0.146700D-01
  0.594800D+01  0.917640D-01
  0.174200D+01  0.298683D+00
  0.555000D+00  0.498487D+00
  0.172500D+00  0.337023D+00
   p     1 1.00
  0.174200D+01  0.100000D+01
   p     1 1.00
  0.555000D+00  0.100000D+01
   d     1 1.00
  0.165400D+01  0.100000D+01
   d     1 1.00
  0.469000D+00  0.100000D+01
   f     1 1.00
  0.109300D+01  0.100000D+01
  
  2  0
   s    10 1.00
  0.823600D+04  0.531000D-03
  0.123500D+04  0.410800D-02
  0.280800D+03  0.210870D-01
  0.792700D+02  0.818530D-01
  0.255900D+02  0.234817D+00
  0.899700D+01  0.434401D+00
  0.331900D+01  0.346129D+00
  0.905900D+00  0.393780D-01
  0.364300D+00 -0.898300D-02
  0.128500D+00  0.238500D-02
   s    10 1.00
  0.823600D+04 -0.113000D-03
  0.123500D+04 -0.878000D-03
  0.280800D+03 -0.454000D-02
  0.792700D+02 -0.181330D-01
  0.255900D+02 -0.557600D-01
  0.899700D+01 -0.126895D+00
  0.331900D+01 -0.170352D+00
  0.905900D+00  0.140382D+00
  0.364300D+00  0.598684D+00
  0.128500D+00  0.395389D+00
   s     1 1.00
  0.905900D+00  0.100000D+01
   s     1 1.00
  0.364300D+00  0.100000D+01
   p     5 1.00
  0.187100D+02  0.140310D-01
  0.413300D+01  0.868660D-01
  0.120000D+01  0.290216D+00
  0.382700D+00  0.501008D+00
  0.120900D+00  0.343406D+00
   p     1 1.00
  0.382700D+00  0.100000D+01
   p     1 1.00
  0.120900D+00  0.100000D+01
   d     1 1.00
  0.109700D+01  0.100000D+01
   d     1 1.00
  0.318000D+00  0.100000D+01
   f     1 1.00
  0.761000D+00  0.100000D+01
  
  3  0
   s    10 1.00
  0.823600D+04  0.531000D-03
  0.123500D+04  0.410800D-02
  0.280800D+03  0.210870D-01
  0.792700D+02  0.818530D-01
  0.255900D+02  0.234817D+00
  0.899700D+01  0.434401D+00
  0.331900D+01  0.346129D+00
  0.905900D+00  0.393780D-01
  0.364300D+00 -0.898300D-02
  0.128500D+00  0.238500D-02
   s    10 1.00
  0.823600D+04 -0.113000D-03
  0.123500D+04 -0.878000D-03
  0.280800D+03 -0.454000D-02
  0.792700D+02 -0.181330D-01
  0.255900D+02 -0.557600D-01
  0.899700D+01 -0.126895D+00
  0.331900D+01 -0.170352D+00
  0.905900D+00  0.140382D+00
  0.364300D+00  0.598684D+00
  0.128500D+00  0.395389D+00
   s     1 1.00
  0.905900D+00  0.100000D+01
   s     1 1.00
  0.364300D+00  0.100000D+01
   p     5 1.00
  0.187100D+02  0.140310D-01
  0.413300D+01  0.868660D-01
  0.120000D+01  0.290216D+00
  0.382700D+00  0.501008D+00
  0.120900D+00  0.343406D+00
   p     1 1.00
  0.382700D+00  0.100000D+01
   p     1 1.00
  0.120900D+00  0.100000D+01
   d     1 1.00
  0.109700D+01  0.100000D+01
   d     1 1.00
  0.318000D+00  0.100000D+01
   f     1 1.00
  0.761000D+00  0.100000D+01
  
  4  0
   s    10 1.00
  0.823600D+04  0.531000D-03
  0.123500D+04  0.410800D-02
  0.280800D+03  0.210870D-01
  0.792700D+02  0.818530D-01
  0.255900D+02  0.234817D+00
  0.899700D+01  0.434401D+00
  0.331900D+01  0.346129D+00
  0.905900D+00  0.393780D-01
  0.364300D+00 -0.898300D-02
  0.128500D+00  0.238500D-02
   s    10 1.00
  0.823600D+04 -0.113000D-03
  0.123500D+04 -0.878000D-03
  0.280800D+03 -0.454000D-02
  0.792700D+02 -0.181330D-01
  0.255900D+02 -0.557600D-01
  0.899700D+01 -0.126895D+00
  0.331900D+01 -0.170352D+00
  0.905900D+00  0.140382D+00
  0.364300D+00  0.598684D+00
  0.128500D+00  0.395389D+00
   s     1 1.00
  0.905900D+00  0.100000D+01
   s     1 1.00
  0.364300D+00  0.100000D+01
   p     5 1.00
  0.187100D+02  0.140310D-01
  0.413300D+01  0.868660D-01
  0.120000D+01  0.290216D+00
  0.382700D+00  0.501008D+00
  0.120900D+00  0.343406D+00
   p     1 1.00
  0.382700D+00  0.100000D+01
   p     1 1.00
  0.120900D+00  0.100000D+01
   d     1 1.00
  0.109700D+01  0.100000D+01
   d     1 1.00
  0.318000D+00  0.100000D+01
   f     1 1.00
  0.761000D+00  0.100000D+01
  
  5  0
   s    10 1.00
  0.823600D+04  0.531000D-03
  0.123500D+04  0.410800D-02
  0.280800D+03  0.210870D-01
  0.792700D+02  0.818530D-01
  0.255900D+02  0.234817D+00
  0.899700D+01  0.434401D+00
  0.331900D+01  0.346129D+00
  0.905900D+00  0.393780D-01
  0.364300D+00 -0.898300D-02
  0.128500D+00  0.238500D-02
   s    10 1.00
  0.823600D+04 -0.113000D-03
  0.123500D+04 -0.878000D-03
  0.280800D+03 -0.454000D-02
  0.792700D+02 -0.181330D-01
  0.255900D+02 -0.557600D-01
  0.899700D+01 -0.126895D+00
  0.331900D+01 -0.170352D+00
  0.905900D+00  0.140382D+00
  0.364300D+00  0.598684D+00
  0.128500D+00  0.395389D+00
   s     1 1.00
  0.905900D+00  0.100000D+01
   s     1 1.00
  0.364300D+00  0.100000D+01
   p     5 1.00
  0.187100D+02  0.140310D-01
  0.413300D+01  0.868660D-01
  0.120000D+01  0.290216D+00
  0.382700D+00  0.501008D+00
  0.120900D+00  0.343406D+00
   p     1 1.00
  0.382700D+00  0.100000D+01
   p     1 1.00
  0.120900D+00  0.100000D+01
   d     1 1.00
  0.109700D+01  0.100000D+01
   d     1 1.00
  0.318000D+00  0.100000D+01
   f     1 1.00
  0.761000D+00  0.100000D+01
  
  6  0
   s    10 1.00
  0.823600D+04  0.531000D-03
  0.123500D+04  0.410800D-02
  0.280800D+03  0.210870D-01
  0.792700D+02  0.818530D-01
  0.255900D+02  0.234817D+00
  0.899700D+01  0.434401D+00
  0.331900D+01  0.346129D+00
  0.905900D+00  0.393780D-01
  0.364300D+00 -0.898300D-02
  0.128500D+00  0.238500D-02
   s    10 1.00
  0.823600D+04 -0.113000D-03
  0.123500D+04 -0.878000D-03
  0.280800D+03 -0.454000D-02
  0.792700D+02 -0.181330D-01
  0.255900D+02 -0.557600D-01
  0.899700D+01 -0.126895D+00
  0.331900D+01 -0.170352D+00
  0.905900D+00  0.140382D+00
  0.364300D+00  0.598684D+00
  0.128500D+00  0.395389D+00
   s     1 1.00
  0.905900D+00  0.100000D+01
   s     1 1.00
  0.364300D+00  0.100000D+01
   p     5 1.00
  0.187100D+02  0.140310D-01
  0.413300D+01  0.868660D-01
  0.120000D+01  0.290216D+00
  0.382700D+00  0.501008D+00
  0.120900D+00  0.343406D+00
   p     1 1.00
  0.382700D+00  0.100000D+01
   p     1 1.00
  0.120900D+00  0.100000D+01
   d     1 1.00
  0.109700D+01  0.100000D+01
   d     1 1.00
  0.318000D+00  0.100000D+01
   f     1 1.00
  0.761000D+00  0.100000D+01
  
  7  0
   s    10 1.00
  0.823600D+04  0.531000D-03
  0.123500D+04  0.410800D-02
  0.280800D+03  0.210870D-01
  0.792700D+02  0.818530D-01
  0.255900D+02  0.234817D+00
  0.899700D+01  0.434401D+00
  0.331900D+01  0.346129D+00
  0.905900D+00  0.393780D-01
  0.364300D+00 -0.898300D-02
  0.128500D+00  0.238500D-02
   s    10 1.00
  0.823600D+04 -0.113000D-03
  0.123500D+04 -0.878000D-03
  0.280800D+03 -0.454000D-02
  0.792700D+02 -0.181330D-01
  0.255900D+02 -0.557600D-01
  0.899700D+01 -0.126895D+00
  0.331900D+01 -0.170352D+00
  0.905900D+00  0.140382D+00
  0.364300D+00  0.598684D+00
  0.128500D+00  0.395389D+00
   s     1 1.00
  0.905900D+00  0.100000D+01
   s     1 1.00
  0.364300D+00  0.100000D+01
   p     5 1.00
  0.187100D+02  0.140310D-01
  0.413300D+01  0.868660D-01
  0.120000D+01  0.290216D+00
  0.382700D+00  0.501008D+00
  0.120900D+00  0.343406D+00
   p     1 1.00
  0.382700D+00  0.100000D+01
   p     1 1.00
  0.120900D+00  0.100000D+01
   d     1 1.00
  0.109700D+01  0.100000D+01
   d     1 1.00
  0.318000D+00  0.100000D+01
   f     1 1.00
  0.761000D+00  0.100000D+01
  
  8  0
   s     4 1.00
  0.130100D+02  0.196850D-01
  0.196200D+01  0.137977D+00
  0.444600D+00  0.478148D+00
  0.122000D+00  0.501240D+00
   s     1 1.00
  0.122000D+00  0.100000D+01
   p     1 1.00
  0.727000D+00  0.100000D+01
  
  9  0
   s     4 1.00
  0.130100D+02  0.196850D-01
  0.196200D+01  0.137977D+00
  0.444600D+00  0.478148D+00
  0.122000D+00  0.501240D+00
   s     1 1.00
  0.122000D+00  0.100000D+01
   p     1 1.00
  0.727000D+00  0.100000D+01
  
 10  0
   s     4 1.00
  0.130100D+02  0.196850D-01
  0.196200D+01  0.137977D+00
  0.444600D+00  0.478148D+00
  0.122000D+00  0.501240D+00
   s     1 1.00
  0.122000D+00  0.100000D+01
   p     1 1.00
  0.727000D+00  0.100000D+01
  
 11  0
   s     4 1.00
  0.130100D+02  0.196850D-01
  0.196200D+01  0.137977D+00
  0.444600D+00  0.478148D+00
  0.122000D+00  0.501240D+00
   s     1 1.00
  0.122000D+00  0.100000D+01
   p     1 1.00
  0.727000D+00  0.100000D+01
  
 12  0
   s     4 1.00
  0.130100D+02  0.196850D-01
  0.196200D+01  0.137977D+00
  0.444600D+00  0.478148D+00
  0.122000D+00  0.501240D+00
   s     1 1.00
  0.122000D+00  0.100000D+01
   p     1 1.00
  0.727000D+00  0.100000D+01
  
 13  0
   s     4 1.00
  0.130100D+02  0.196850D-01
  0.196200D+01  0.137977D+00
  0.444600D+00  0.478148D+00
  0.122000D+00  0.501240D+00
   s     1 1.00
  0.122000D+00  0.100000D+01
   p     1 1.00
  0.727000D+00  0.100000D+01
  
 14  0
   s     4 1.00
  0.130100D+02  0.196850D-01
  0.196200D+01  0.137977D+00
  0.444600D+00  0.478148D+00
  0.122000D+00  0.501240D+00
   s     1 1.00
  0.122000D+00  0.100000D+01
   p     1 1.00
  0.727000D+00  0.100000D+01
  
[MO]
 Sym= __1_a__
 Ene=  0.000000000000000E+000
 Spin= Alpha
 Occup=    2.00000000000000     
                     1  1.480505534211600E-004
                     2  0.998067988895342     
                     3  6.168240617354390E-003
                     4  1.998566883042610E-003
                     5  3.818618827668170E-003
                     6  4.720742685894200E-003
                     7 -3.261711008380420E-003
                     8 -6.055421919348490E-009
                     9 -4.531438718358150E-004
                    10  7.639684482663720E-005
                    11  2.775440635117950E-009
                    12 -7.191247149040160E-004
                    13  2.188634482116220E-003
                    14 -8.982514035621831E-009
                    15 -4.102922793080988E-006
                    16 -4.104357776187360E-010
                    17  7.385572692343050E-011
                    18  1.575650586452622E-004
                    19  5.654165068493870E-005
                    20 -4.362832494152963E-004
                    21 -3.435398641653790E-010
                    22  1.665278637354840E-009
                    23 -3.887142963443880E-005
                    24 -3.979624292524860E-004
                    25  3.793620335754948E-009
                    26 -1.725767181641544E-004
                    27 -5.486939201807008E-005
                    28  6.243687429358320E-009
                    29 -8.186421437415350E-010
                    30 -9.332496980251160E-005
                    31 -6.130954171930755E-005
                    32 -3.755768429087000E-004
                    33  1.496605633426520E-003
                    34  1.785685752645720E-004
                    35 -8.115731333335210E-005
                    36 -5.389579578131250E-003
                    37  7.468580858646569E-005
                    38  5.043793357544650E-009
                    39  2.027389573456890E-004
                    40  7.072533712496030E-006
                    41 -7.606789398040350E-009
                    42  4.553106617576220E-003
                    43  6.415740749232171E-004
                    44  7.182779206733979E-008
                    45 -2.557075695621166E-004
                    46  3.630077325097030E-009
                    47 -9.667475197709050E-011
                    48  2.178400153050640E-004
                    49  3.376525585934890E-005
                    50  3.880175998475162E-004
                    51 -3.042412841249470E-008
                    52  5.399972216978670E-010
                    53  1.153438643542902E-004
                    54 -2.882178205264250E-004
                    55 -6.132356736195463E-009
                    56 -9.368047445045105E-005
                    57  1.230205241630919E-005
                    58 -3.297223626925460E-009
                    59  2.351983325374170E-010
                    60 -4.265534787042586E-005
                    61  3.758381565510116E-005
                    62 -2.944665706642740E-004
                    63 -1.750295891355590E-003
                    64  8.197050639760850E-005
                    65  6.812833530862730E-004
                    66  7.223130713045210E-004
                    67 -2.439655690823860E-005
                    68 -7.023838492629550E-004
                    69  5.887458403948580E-004
                    70  5.271590724420980E-005
                    71  1.433767307815650E-005
                    72 -3.607605747077930E-004
                    73 -2.641695564824050E-004
                    74 -6.763560170047330E-004
                    75 -7.193727849686034E-005
                    76 -1.170738700246460E-005
                    77  1.627913487968260E-005
                    78  5.342753532357920E-005
                    79 -4.862174217918110E-006
                    80  9.478643199687266E-005
                    81  1.923734823839100E-004
                    82 -2.768076773253590E-005
                    83 -5.899086057933660E-005
                    84  2.792695714382480E-005
                    85 -1.374126878028216E-005
                    86 -5.894328693273978E-005
                    87  1.599947115827236E-005
                    88 -2.249202068735800E-005
                    89  1.144130744475680E-005
                    90 -4.886544217343028E-005
                    91 -7.897626525001349E-006
                    92 -2.944533852195820E-004
                    93 -1.750243434241150E-003
                    94  8.202000022598280E-005
                    95  6.811385739112320E-004
                    96  7.223455505344880E-004
                    97 -2.439633211195190E-005
                    98  7.023865562606370E-004
                    99  5.885940626146460E-004
                   100  5.271464250528620E-005
                   101 -1.436258801570330E-005
                   102 -3.606024635108770E-004
                   103 -2.641700776242930E-004
                   104  6.761900304642300E-004
                   105 -7.193361293973127E-005
                   106  1.171243980054480E-005
                   107 -1.627900231904230E-005
                   108  5.342030988582780E-005
                   109 -4.862158330959070E-006
                   110  9.486855204351497E-005
                   111 -1.924203783223180E-004
                   112  2.768104748014980E-005
                   113 -5.909071488694060E-005
                   114  2.792586997573910E-005
                   115  1.374478829745017E-005
                   116 -5.892680307200688E-005
                   117  1.599940050861645E-005
                   118  2.249419748552200E-005
                   119 -1.144134928830680E-005
                   120 -4.884866850184441E-005
                   121 -7.897891306961358E-006
                   122 -1.403226219991780E-004
                   123 -7.904725981031580E-005
                   124  6.259642043114940E-005
                   125  3.519503676847660E-004
                   126 -6.549724253844210E-004
                   127 -2.513061977955140E-005
                   128  2.749889292205770E-005
                   129  2.381988963764230E-004
                   130 -7.590184204766100E-006
                   131  2.742796057890110E-005
                   132  7.534012179353940E-004
                   133  1.068699424992700E-004
                   134 -2.695297912984680E-004
                   135  3.521707888630243E-006
                   136 -9.774836186331010E-007
                   137 -2.654346967509600E-006
                   138 -1.058578111366260E-006
                   139  6.320358055703250E-006
                   140  7.126920912107571E-005
                   141  1.898119690849240E-004
                   142  6.683550962325340E-006
                   143 -1.720392948953812E-004
                   144 -1.934178258781150E-005
                   145 -5.753795779385792E-006
                   146 -1.608327336726494E-005
                   147  1.139603644338560E-006
                   148  7.294294477941260E-007
                   149 -1.863651130592970E-006
                   150 -4.111830204653989E-005
                   151  9.448700524096639E-007
                   152 -1.405417093487460E-004
                   153 -7.981788409031850E-005
                   154  6.241653824570440E-005
                   155  3.531561795851760E-004
                   156 -6.549697640333920E-004
                   157 -2.513049998448810E-005
                   158 -2.746921313738690E-005
                   159  2.381506297616000E-004
                   160 -7.590531737987820E-006
                   161 -2.760092563658530E-005
                   162  7.535404059578010E-004
                   163  1.068709857110130E-004
                   164  2.696837897143440E-004
                   165  3.531641554390736E-006
                   166  9.741793028324949E-007
                   167  2.653957991600090E-006
                   168 -1.034247800890004E-006
                   169  6.320413705803110E-006
                   170  7.129436126720700E-005
                   171 -1.899113865831220E-004
                   172 -6.683509752539470E-006
                   173 -1.720126026244960E-004
                   174 -1.934189506619660E-005
                   175  5.757459154131619E-006
                   176 -1.604618291391495E-005
                   177  1.139700497581720E-006
                   178 -7.318098604734320E-007
                   179  1.863718200836320E-006
                   180 -4.110760792868649E-005
                   181  9.448063656834306E-007
                   182 -9.326504180721549E-005
                   183 -2.650076009415160E-004
                   184  2.940890800911620E-005
                   185  8.146261535605050E-005
                   186 -2.161364061064810E-005
                   187 -3.871580898687960E-005
                   188  3.956638129028320E-008
                   189  5.696454923137750E-005
                   190  1.796453647167800E-005
                   191 -1.937512864304550E-007
                   192 -2.056620332608020E-004
                   193 -7.706921496998780E-005
                   194 -5.029883755749930E-008
                   195 -1.280127309955799E-005
                   196  9.430723958496721E-009
                   197 -2.285930674895450E-011
                   198  7.661409902328001E-006
                   199 -1.540024214156730E-006
                   200 -1.064908962327300E-004
                   201  9.879850611590490E-008
                   202  1.150724225003660E-010
                   203  4.265337125334980E-005
                   204  1.233750830364690E-005
                   205  9.163091869523654E-009
                   206  1.766260504324778E-007
                   207  2.116645726825999E-006
                   208 -9.098522703589100E-009
                   209  6.090877208785270E-011
                   210 -5.422327318815003E-006
                   211 -1.492847831790117E-006
                   212  3.282133144411690E-003
                   213 -2.304368524307030E-003
                   214  2.551279055319260E-004
                   215  2.317304272933620E-004
                   216  4.061629038310700E-004
                   217  3.282132633871820E-003
                   218 -2.304369237771200E-003
                   219  2.551318600059600E-004
                   220  2.317302932508690E-004
                   221 -4.061644856616540E-004
                   222 -5.475997154851150E-004
                   223 -2.312404548446360E-004
                   224 -4.820886971081160E-005
                   225  5.440613620250340E-006
                   226  1.454435286068020E-005
                   227 -5.476189851569710E-004
                   228 -2.310976677125700E-004
                   229 -4.821611007455600E-005
                   230  5.440533602266290E-006
                   231 -1.454939641762940E-005
                   232 -1.544344582009440E-004
                   233 -4.539607462903660E-004
                   234  5.989947529746970E-006
                   235 -6.571639975868690E-007
                   236 -4.007628761227410E-006
                   237 -1.544629730099470E-004
                   238 -4.540073565744340E-004
                   239  6.011998599181760E-006
                   240 -6.570680701348860E-007
                   241  4.025837889138940E-006
                   242  5.031137884393410E-005
                   243  2.670186521833040E-005
                   244  1.991122863114040E-005
                   245  8.011571279038790E-007
                   246 -1.026164297310090E-008
 Sym= __2_a__
 Ene=  0.000000000000000E+000
 Spin= Alpha
 Occup=    2.00000000000000     
                     1 -3.203692508147830E-005
                     2 -1.566795840104480E-004
                     3  1.981530053589210E-003
                     4  4.623121980657940E-005
                     5  1.190012194921520E-003
                     6  2.309586117207600E-003
                     7  3.544522844830420E-004
                     8  3.212671177854810E-009
                     9 -6.766872028067551E-005
                    10  5.705320898278160E-005
                    11 -1.837609472532790E-009
                    12 -2.165734832691310E-004
                    13 -4.022917111109900E-006
                    14  2.594700999659960E-009
                    15 -7.442580154660210E-005
                    16  2.107381718052270E-010
                    17 -9.613488944317569E-011
                    18  2.289477445575440E-005
                    19 -4.906395824842580E-007
                    20  3.043127080468893E-004
                    21 -1.410038242418160E-009
                    22 -4.271644233123650E-010
                    23  2.165477082669820E-005
                    24 -2.267478876781450E-005
                    25 -3.128724537689491E-010
                    26  1.306966581769234E-004
                    27 -5.692616432231355E-005
                    28 -1.009193380790626E-009
                    29  1.555574950212520E-010
                    30  1.318749733832136E-004
                    31  2.940355279692277E-005
                    32   1.00106464632521     
                    33  8.868876774532800E-003
                    34  2.618000743271750E-003
                    35 -8.035318359027689E-003
                    36 -3.133850925745780E-003
                    37  6.148058351160030E-004
                    38 -3.351874323941350E-009
                    39  9.174331372751290E-004
                    40 -1.855243090587930E-004
                    41  2.308418104902990E-010
                    42  3.815474702659850E-003
                    43 -9.605793951128631E-005
                    44 -3.049438290388950E-008
                    45  2.328738957848479E-004
                    46 -1.293663948445040E-009
                    47  1.029315905180760E-010
                    48  4.658442670557120E-004
                    49 -2.622520025267440E-005
                    50 -1.293658821621695E-003
                    51  2.458883587698480E-009
                    52 -6.192385562805550E-010
                    53  6.696670982460740E-005
                    54  2.033444010692290E-005
                    55  1.261229026422467E-009
                    56  3.219583673181901E-004
                    57 -7.856568797653560E-006
                    58 -2.087739424559900E-010
                    59 -1.007126746958820E-010
                    60  1.236091707785737E-004
                    61  2.247308648897127E-005
                    62  9.974004521622859E-003
                    63 -1.911627879057650E-003
                    64 -2.984302222360600E-004
                    65  3.084410086838940E-003
                    66 -5.539276811082340E-005
                    67  1.066722015962360E-004
                    68  1.857973047376520E-004
                    69 -1.404224623404820E-004
                    70 -7.719224028332581E-006
                    71  6.262776147378700E-004
                    72  1.129724973372870E-005
                    73 -1.297470264163930E-005
                    74 -2.005633592655180E-003
                    75  3.026254077381753E-007
                    76  1.248233628131080E-005
                    77  7.618083418754290E-006
                    78 -3.146861119505220E-005
                    79 -5.435933598020460E-006
                    80 -4.103485913829709E-004
                    81 -5.697836800632760E-004
                    82 -3.920075750869050E-006
                    83  6.983736389127980E-004
                    84  1.308531745462280E-005
                    85  8.132408519911462E-005
                    86  1.148490926189061E-004
                    87  1.198620019257220E-006
                    88  6.433003240052720E-006
                    89 -6.193320605968350E-006
                    90 -2.265357614032818E-005
                    91  4.204606243802115E-006
                    92  9.973998660140371E-003
                    93 -1.911670863089050E-003
                    94 -2.984483269907530E-004
                    95  3.084494038886900E-003
                    96 -5.540343055357690E-005
                    97  1.066720382525940E-004
                    98 -1.857959383215930E-004
                    99 -1.403753527194190E-004
                   100 -7.718673997478790E-006
                   101 -6.262823295893890E-004
                   102  1.122767276622640E-005
                   103 -1.297470078851750E-005
                   104  2.005694114301270E-003
                   105  3.004464544452855E-007
                   106 -1.248495414394640E-005
                   107 -7.618131589828710E-006
                   108 -3.146341554627240E-005
                   109 -5.435884696688750E-006
                   110 -4.103673914967549E-004
                   111  5.698045618630190E-004
                   112  3.919780047508150E-006
                   113  6.983915206773299E-004
                   114  1.308512294180590E-005
                   115 -8.132370181592361E-005
                   116  1.148439915390202E-004
                   117  1.198673458216129E-006
                   118 -6.433161613671040E-006
                   119  6.193445567752380E-006
                   120 -2.265784509780147E-005
                   121  4.204670462905485E-006
                   122 -2.012569416100080E-004
                   123 -6.902111511683860E-004
                   124  2.267147904369530E-004
                   125 -1.304319896439140E-004
                   126 -2.182205530456420E-004
                   127  1.936631219007800E-005
                   128 -2.692518316759490E-005
                   129  4.912490616572100E-004
                   130 -4.357187799142850E-006
                   131  1.900672814783740E-005
                   132  6.471515732321690E-004
                   133  1.168622972578450E-006
                   134  3.333169666111620E-004
                   135 -2.808066407547630E-006
                   136  4.574596994171160E-005
                   137 -1.493968983592360E-007
                   138 -1.995313639939338E-005
                   139 -1.633477666812390E-006
                   140  1.639142617280399E-004
                   141 -2.774112921323720E-004
                   142  2.747003867876520E-006
                   143 -2.556869792622560E-004
                   144 -8.072493404978200E-007
                   145 -2.397810779156519E-005
                   146  1.642920656631672E-005
                   147  3.883191496370913E-007
                   148 -2.440547040455780E-005
                   149 -2.051044679825900E-006
                   150 -2.695828682615633E-005
                   151 -6.262577958569775E-007
                   152 -2.010925744424950E-004
                   153 -6.896607199177880E-004
                   154  2.267425791845620E-004
                   155 -1.309815036358690E-004
                   156 -2.182208585432120E-004
                   157  1.936630061126250E-005
                   158  2.691891856536090E-005
                   159  4.912606402453560E-004
                   160 -4.357117180549260E-006