[Molden Format]
[Atoms] AU
  N     1    7    -4.3947294300    0.0991612700    0.0000000000        
  C     2    6    -1.7793157100   -0.0302296300    0.0000000000        
  C     3    6    -0.4694062400   -0.0063844000   -2.3533798400        
  C     4    6    -0.4694062400   -0.0063844000    2.3533798400        
  C     5    6     2.2141403800    0.0044822200   -2.3290544300        
  C     6    6     2.2141403800    0.0044822200    2.3290544300        
  C     7    6     3.5082657500    0.0051058900    0.0000000000        
  H     8    1    -5.2456596200   -0.5260775200   -1.6043229900        
  H     9    1    -5.2456596200   -0.5260775200    1.6043229900        
  H    10    1    -1.5060850400    0.0139451200   -4.0904831700        
  H    11    1    -1.5060850400    0.0139451200    4.0904831700        
  H    12    1     3.2534251200    0.0120346000   -4.0656015100        
  H    13    1     3.2534251200    0.0120346000    4.0656015100        
  H    14    1     5.5374603900    0.0167086400    0.0000000000        
[5D]
[7F]
[GTO]
  1  0
   s    12 1.00
  0.114200D+05  0.172695D-04
  0.171200D+04  0.134411D-03
  0.389300D+03  0.694561D-03
  0.110000D+03  0.278531D-02
  0.355700D+02  0.863457D-02
  0.125400D+02  0.199805D-01
  0.464400D+01  0.262908D-01
  0.129300D+01 -0.243845D-01
  0.511800D+00 -0.924934D-01
  0.178700D+00 -0.339683D+00
  0.246240D-01  0.345111D+00
  0.112530D-01  0.752750D+00
   s    10 1.00
  0.114200D+05  0.523000D-03
  0.171200D+04  0.404500D-02
  0.389300D+03  0.207750D-01
  0.110000D+03  0.807269D-01
  0.355700D+02  0.233074D+00
  0.125400D+02  0.433501D+00
  0.464400D+01  0.347472D+00
  0.129300D+01  0.412620D-01
  0.511800D+00 -0.850799D-02
  0.178700D+00  0.238400D-02
   s    10 1.00
  0.114200D+05 -0.115000D-03
  0.171200D+04 -0.895000D-03
  0.389300D+03 -0.462400D-02
  0.110000D+03 -0.185280D-01
  0.355700D+02 -0.573390D-01
  0.125400D+02 -0.132076D+00
  0.464400D+01 -0.172510D+00
  0.129300D+01  0.151814D+00
  0.511800D+00  0.599944D+00
  0.178700D+00  0.387462D+00
   s     1 1.00
  0.129300D+01  0.100000D+01
   s     1 1.00
  0.178700D+00  0.100000D+01
   p     5 1.00
  0.266300D+02  0.146700D-01
  0.594800D+01  0.917640D-01
  0.174200D+01  0.298683D+00
  0.555000D+00  0.498487D+00
  0.172500D+00  0.337023D+00
   p     1 1.00
  0.174200D+01  0.100000D+01
   p     1 1.00
  0.555000D+00  0.100000D+01
   d     1 1.00
  0.165400D+01  0.100000D+01
   d     1 1.00
  0.469000D+00  0.100000D+01
   f     1 1.00
  0.109300D+01  0.100000D+01
  
  2  0
   s    10 1.00
  0.823600D+04  0.531000D-03
  0.123500D+04  0.410800D-02
  0.280800D+03  0.210870D-01
  0.792700D+02  0.818530D-01
  0.255900D+02  0.234817D+00
  0.899700D+01  0.434401D+00
  0.331900D+01  0.346129D+00
  0.905900D+00  0.393780D-01
  0.364300D+00 -0.898300D-02
  0.128500D+00  0.238500D-02
   s    10 1.00
  0.823600D+04 -0.113000D-03
  0.123500D+04 -0.878000D-03
  0.280800D+03 -0.454000D-02
  0.792700D+02 -0.181330D-01
  0.255900D+02 -0.557600D-01
  0.899700D+01 -0.126895D+00
  0.331900D+01 -0.170352D+00
  0.905900D+00  0.140382D+00
  0.364300D+00  0.598684D+00
  0.128500D+00  0.395389D+00
   s     1 1.00
  0.905900D+00  0.100000D+01
   s     1 1.00
  0.364300D+00  0.100000D+01
   p     5 1.00
  0.187100D+02  0.140310D-01
  0.413300D+01  0.868660D-01
  0.120000D+01  0.290216D+00
  0.382700D+00  0.501008D+00
  0.120900D+00  0.343406D+00
   p     1 1.00
  0.382700D+00  0.100000D+01
   p     1 1.00
  0.120900D+00  0.100000D+01
   d     1 1.00
  0.109700D+01  0.100000D+01
   d     1 1.00
  0.318000D+00  0.100000D+01
   f     1 1.00
  0.761000D+00  0.100000D+01
  
  3  0
   s    10 1.00
  0.823600D+04  0.531000D-03
  0.123500D+04  0.410800D-02
  0.280800D+03  0.210870D-01
  0.792700D+02  0.818530D-01
  0.255900D+02  0.234817D+00
  0.899700D+01  0.434401D+00
  0.331900D+01  0.346129D+00
  0.905900D+00  0.393780D-01
  0.364300D+00 -0.898300D-02
  0.128500D+00  0.238500D-02
   s    10 1.00
  0.823600D+04 -0.113000D-03
  0.123500D+04 -0.878000D-03
  0.280800D+03 -0.454000D-02
  0.792700D+02 -0.181330D-01
  0.255900D+02 -0.557600D-01
  0.899700D+01 -0.126895D+00
  0.331900D+01 -0.170352D+00
  0.905900D+00  0.140382D+00
  0.364300D+00  0.598684D+00
  0.128500D+00  0.395389D+00
   s     1 1.00
  0.905900D+00  0.100000D+01
   s     1 1.00
  0.364300D+00  0.100000D+01
   p     5 1.00
  0.187100D+02  0.140310D-01
  0.413300D+01  0.868660D-01
  0.120000D+01  0.290216D+00
  0.382700D+00  0.501008D+00
  0.120900D+00  0.343406D+00
   p     1 1.00
  0.382700D+00  0.100000D+01
   p     1 1.00
  0.120900D+00  0.100000D+01
   d     1 1.00
  0.109700D+01  0.100000D+01
   d     1 1.00
  0.318000D+00  0.100000D+01
   f     1 1.00
  0.761000D+00  0.100000D+01
  
  4  0
   s    10 1.00
  0.823600D+04  0.531000D-03
  0.123500D+04  0.410800D-02
  0.280800D+03  0.210870D-01
  0.792700D+02  0.818530D-01
  0.255900D+02  0.234817D+00
  0.899700D+01  0.434401D+00
  0.331900D+01  0.346129D+00
  0.905900D+00  0.393780D-01
  0.364300D+00 -0.898300D-02
  0.128500D+00  0.238500D-02
   s    10 1.00
  0.823600D+04 -0.113000D-03
  0.123500D+04 -0.878000D-03
  0.280800D+03 -0.454000D-02
  0.792700D+02 -0.181330D-01
  0.255900D+02 -0.557600D-01
  0.899700D+01 -0.126895D+00
  0.331900D+01 -0.170352D+00
  0.905900D+00  0.140382D+00
  0.364300D+00  0.598684D+00
  0.128500D+00  0.395389D+00
   s     1 1.00
  0.905900D+00  0.100000D+01
   s     1 1.00
  0.364300D+00  0.100000D+01
   p     5 1.00
  0.187100D+02  0.140310D-01
  0.413300D+01  0.868660D-01
  0.120000D+01  0.290216D+00
  0.382700D+00  0.501008D+00
  0.120900D+00  0.343406D+00
   p     1 1.00
  0.382700D+00  0.100000D+01
   p     1 1.00
  0.120900D+00  0.100000D+01
   d     1 1.00
  0.109700D+01  0.100000D+01
   d     1 1.00
  0.318000D+00  0.100000D+01
   f     1 1.00
  0.761000D+00  0.100000D+01
  
  5  0
   s    10 1.00
  0.823600D+04  0.531000D-03
  0.123500D+04  0.410800D-02
  0.280800D+03  0.210870D-01
  0.792700D+02  0.818530D-01
  0.255900D+02  0.234817D+00
  0.899700D+01  0.434401D+00
  0.331900D+01  0.346129D+00
  0.905900D+00  0.393780D-01
  0.364300D+00 -0.898300D-02
  0.128500D+00  0.238500D-02
   s    10 1.00
  0.823600D+04 -0.113000D-03
  0.123500D+04 -0.878000D-03
  0.280800D+03 -0.454000D-02
  0.792700D+02 -0.181330D-01
  0.255900D+02 -0.557600D-01
  0.899700D+01 -0.126895D+00
  0.331900D+01 -0.170352D+00
  0.905900D+00  0.140382D+00
  0.364300D+00  0.598684D+00
  0.128500D+00  0.395389D+00
   s     1 1.00
  0.905900D+00  0.100000D+01
   s     1 1.00
  0.364300D+00  0.100000D+01
   p     5 1.00
  0.187100D+02  0.140310D-01
  0.413300D+01  0.868660D-01
  0.120000D+01  0.290216D+00
  0.382700D+00  0.501008D+00
  0.120900D+00  0.343406D+00
   p     1 1.00
  0.382700D+00  0.100000D+01
   p     1 1.00
  0.120900D+00  0.100000D+01
   d     1 1.00
  0.109700D+01  0.100000D+01
   d     1 1.00
  0.318000D+00  0.100000D+01
   f     1 1.00
  0.761000D+00  0.100000D+01
  
  6  0
   s    10 1.00
  0.823600D+04  0.531000D-03
  0.123500D+04  0.410800D-02
  0.280800D+03  0.210870D-01
  0.792700D+02  0.818530D-01
  0.255900D+02  0.234817D+00
  0.899700D+01  0.434401D+00
  0.331900D+01  0.346129D+00
  0.905900D+00  0.393780D-01
  0.364300D+00 -0.898300D-02
  0.128500D+00  0.238500D-02
   s    10 1.00
  0.823600D+04 -0.113000D-03
  0.123500D+04 -0.878000D-03
  0.280800D+03 -0.454000D-02
  0.792700D+02 -0.181330D-01
  0.255900D+02 -0.557600D-01
  0.899700D+01 -0.126895D+00
  0.331900D+01 -0.170352D+00
  0.905900D+00  0.140382D+00
  0.364300D+00  0.598684D+00
  0.128500D+00  0.395389D+00
   s     1 1.00
  0.905900D+00  0.100000D+01
   s     1 1.00
  0.364300D+00  0.100000D+01
   p     5 1.00
  0.187100D+02  0.140310D-01
  0.413300D+01  0.868660D-01
  0.120000D+01  0.290216D+00
  0.382700D+00  0.501008D+00
  0.120900D+00  0.343406D+00
   p     1 1.00
  0.382700D+00  0.100000D+01
   p     1 1.00
  0.120900D+00  0.100000D+01
   d     1 1.00
  0.109700D+01  0.100000D+01
   d     1 1.00
  0.318000D+00  0.100000D+01
   f     1 1.00
  0.761000D+00  0.100000D+01
  
  7  0
   s    10 1.00
  0.823600D+04  0.531000D-03
  0.123500D+04  0.410800D-02
  0.280800D+03  0.210870D-01
  0.792700D+02  0.818530D-01
  0.255900D+02  0.234817D+00
  0.899700D+01  0.434401D+00
  0.331900D+01  0.346129D+00
  0.905900D+00  0.393780D-01
  0.364300D+00 -0.898300D-02
  0.128500D+00  0.238500D-02
   s    10 1.00
  0.823600D+04 -0.113000D-03
  0.123500D+04 -0.878000D-03
  0.280800D+03 -0.454000D-02
  0.792700D+02 -0.181330D-01
  0.255900D+02 -0.557600D-01
  0.899700D+01 -0.126895D+00
  0.331900D+01 -0.170352D+00
  0.905900D+00  0.140382D+00
  0.364300D+00  0.598684D+00
  0.128500D+00  0.395389D+00
   s     1 1.00
  0.905900D+00  0.100000D+01
   s     1 1.00
  0.364300D+00  0.100000D+01
   p     5 1.00
  0.187100D+02  0.140310D-01
  0.413300D+01  0.868660D-01
  0.120000D+01  0.290216D+00
  0.382700D+00  0.501008D+00
  0.120900D+00  0.343406D+00
   p     1 1.00
  0.382700D+00  0.100000D+01
   p     1 1.00
  0.120900D+00  0.100000D+01
   d     1 1.00
  0.109700D+01  0.100000D+01
   d     1 1.00
  0.318000D+00  0.100000D+01
   f     1 1.00
  0.761000D+00  0.100000D+01
  
  8  0
   s     4 1.00
  0.130100D+02  0.196850D-01
  0.196200D+01  0.137977D+00
  0.444600D+00  0.478148D+00
  0.122000D+00  0.501240D+00
   s     1 1.00
  0.122000D+00  0.100000D+01
   p     1 1.00
  0.727000D+00  0.100000D+01
  
  9  0
   s     4 1.00
  0.130100D+02  0.196850D-01
  0.196200D+01  0.137977D+00
  0.444600D+00  0.478148D+00
  0.122000D+00  0.501240D+00
   s     1 1.00
  0.122000D+00  0.100000D+01
   p     1 1.00
  0.727000D+00  0.100000D+01
  
 10  0
   s     4 1.00
  0.130100D+02  0.196850D-01
  0.196200D+01  0.137977D+00
  0.444600D+00  0.478148D+00
  0.122000D+00  0.501240D+00
   s     1 1.00
  0.122000D+00  0.100000D+01
   p     1 1.00
  0.727000D+00  0.100000D+01
  
 11  0
   s     4 1.00
  0.130100D+02  0.196850D-01
  0.196200D+01  0.137977D+00
  0.444600D+00  0.478148D+00
  0.122000D+00  0.501240D+00
   s     1 1.00
  0.122000D+00  0.100000D+01
   p     1 1.00
  0.727000D+00  0.100000D+01
  
 12  0
   s     4 1.00
  0.130100D+02  0.196850D-01
  0.196200D+01  0.137977D+00
  0.444600D+00  0.478148D+00
  0.122000D+00  0.501240D+00
   s     1 1.00
  0.122000D+00  0.100000D+01
   p     1 1.00
  0.727000D+00  0.100000D+01
  
 13  0
   s     4 1.00
  0.130100D+02  0.196850D-01
  0.196200D+01  0.137977D+00
  0.444600D+00  0.478148D+00
  0.122000D+00  0.501240D+00
   s     1 1.00
  0.122000D+00  0.100000D+01
   p     1 1.00
  0.727000D+00  0.100000D+01
  
 14  0
   s     4 1.00
  0.130100D+02  0.196850D-01
  0.196200D+01  0.137977D+00
  0.444600D+00  0.478148D+00
  0.122000D+00  0.501240D+00
   s     1 1.00
  0.122000D+00  0.100000D+01
   p     1 1.00
  0.727000D+00  0.100000D+01
  
[MO]
 Sym= __1_A__
 Ene=  0.000000000000000E+000
 Spin= Alpha
 Occup=    2.00000000000000     
                     1  1.480505533609631E-004
                     2  0.998067988895475     
                     3  6.168240616617240E-003
                     4  1.998566883065206E-003
                     5  3.818618828419512E-003
                     6  4.720742685915206E-003
                     7 -3.261711008786553E-003
                     8 -6.056023731765899E-009
                     9 -4.531438719371556E-004
                    10  7.639684489432759E-005
                    11  2.775465965181975E-009
                    12 -7.191247148827017E-004
                    13  2.188634482158334E-003
                    14 -8.982545490650216E-009
                    15 -4.102922793107446E-006
                    16 -4.106988559916802E-010
                    17  7.382830065391870E-011
                    18  1.575650586163454E-004
                    19  5.654165067794942E-005
                    20 -4.362832493168739E-004
                    21 -3.444946843736996E-010
                    22  1.665294638276429E-009
                    23 -3.887142974420820E-005
                    24 -3.979624292336491E-004
                    25  3.793506082479945E-009
                    26 -1.725767181662232E-004
                    27 -5.486939201881613E-005
                    28  6.243545878449128E-009
                    29 -8.185991775694246E-010
                    30 -9.332496978141383E-005
                    31 -6.130954171791536E-005
                    32 -3.755768417126751E-004
                    33  1.496605618247795E-003
                    34  1.785685754240038E-004
                    35 -8.115731272135834E-005
                    36 -5.389579583573912E-003
                    37  7.468580829742610E-005
                    38  5.007054950746957E-009
                    39  2.027389574652606E-004
                    40  7.072533733146946E-006
                    41 -7.604620743936392E-009
                    42  4.553106617097961E-003
                    43  6.415740748957271E-004
                    44  7.183779617557147E-008
                    45 -2.557075699487409E-004
                    46  3.629133664465440E-009
                    47 -9.671498223939659E-011
                    48  2.178400152571444E-004
                    49  3.376525585747115E-005
                    50  3.880175994273761E-004
                    51 -3.042582017437867E-008
                    52  5.400702488343565E-010
                    53  1.153438640624869E-004
                    54 -2.882178205402313E-004
                    55 -6.132056689133273E-009
                    56 -9.368047471501598E-005
                    57  1.230205240914986E-005
                    58 -3.297422001719680E-009
                    59  2.351977264994688E-010
                    60 -4.265534788739187E-005
                    61  3.758381564270685E-005
                    62 -2.944665699069832E-004
                    63 -1.750295878880943E-003
                    64  8.197050615052646E-005
                    65  6.812833518650368E-004
                    66  7.223130623297476E-004
                    67 -2.439655720756814E-005
                    68 -7.023838371729941E-004
                    69  5.887458406753940E-004
                    70  5.271590730392943E-005
                    71  1.433767228424471E-005
                    72 -3.607605734068811E-004
                    73 -2.641695565006715E-004
                    74 -6.763560164119420E-004
                    75 -7.193727833052948E-005
                    76 -1.170738750345387E-005
                    77  1.627913486906310E-005
                    78  5.342753544180428E-005
                    79 -4.862174213488394E-006
                    80  9.478643198415997E-005
                    81  1.923734817407745E-004
                    82 -2.768076772192579E-005
                    83 -5.899086027376878E-005
                    84  2.792695714889920E-005
                    85 -1.374126880448812E-005
                    86 -5.894328714299074E-005
                    87  1.599947115602212E-005
                    88 -2.249202054647996E-005
                    89  1.144130744379598E-005
                    90 -4.886544213167562E-005
                    91 -7.897626526352821E-006
                    92 -2.944533848295124E-004
                    93 -1.750243454129808E-003
                    94  8.202000047960475E-005
                    95  6.811385750644742E-004
                    96  7.223455741668734E-004
                    97 -2.439633191236857E-005
                    98  7.023865778395068E-004
                    99  5.885940604301842E-004
                   100  5.271464244077547E-005
                   101 -1.436258934602260E-005
                   102 -3.606024687382981E-004
                   103 -2.641700776160708E-004
                   104  6.761900258348146E-004
                   105 -7.193361367100880E-005
                   106  1.171243902332406E-005
                   107 -1.627900232845408E-005
                   108  5.342030991040126E-005
                   109 -4.862158331544909E-006
                   110  9.486855192552168E-005
                   111 -1.924203795917077E-004
                   112  2.768104748423119E-005
                   113 -5.909071543026316E-005
                   114  2.792586995282710E-005
                   115  1.374478819757200E-005
                   116 -5.892680268577426E-005
                   117  1.599940051156049E-005
                   118  2.249419768560518E-005
                   119 -1.144134928661679E-005
                   120 -4.884866859511629E-005
                   121 -7.897891305600546E-006
                   122 -1.403226218106134E-004
                   123 -7.904726072413391E-005
                   124  6.259642045549520E-005
                   125  3.519503672093951E-004
                   126 -6.549724235532736E-004
                   127 -2.513061978963074E-005
                   128  2.749889154991897E-005
                   129  2.381988963440504E-004
                   130 -7.590184214350718E-006
                   131  2.742796086111212E-005
                   132  7.534012171268879E-004
                   133  1.068699425410481E-004
                   134 -2.695297919825096E-004
                   135  3.521707939632302E-006
                   136 -9.774838031478409E-007
                   137 -2.654346967413701E-006
                   138 -1.058578164607091E-006
                   139  6.320358060416230E-006
                   140  7.126920896313717E-005
                   141  1.898119688699181E-004
                   142  6.683550960148142E-006
                   143 -1.720392948663362E-004
                   144 -1.934178258404180E-005
                   145 -5.753795739200244E-006
                   146 -1.608327341418587E-005
                   147  1.139603645436345E-006
                   148  7.294294786676974E-007
                   149 -1.863651128989135E-006
                   150 -4.111830205825245E-005
                   151  9.448700497132783E-007
                   152 -1.405417090181599E-004
                   153 -7.981787511821417E-005
                   154  6.241653788306924E-005
                   155  3.531561796884010E-004
                   156 -6.549697739637436E-004
                   157 -2.513050001129862E-005
                   158 -2.746921440077483E-005
                   159  2.381506297230521E-004
                   160 -7.590531725162507E-006
                   161 -2.760092512269052E-005
                   162  7.535404055540871E-004
                   163  1.068709856748177E-004
                   164  2.696837889512672E-004
                   165  3.531641376107296E-006
                   166  9.741789982302379E-007
                   167  2.653957989724647E-006
                   168 -1.034247536297333E-006
                   169  6.320413706153778E-006
                   170  7.129436098205746E-005
                   171 -1.899113871434381E-004
                   172 -6.683509754815032E-006
                   173 -1.720126021124117E-004
                   174 -1.934189506259350E-005
                   175  5.757459245007114E-006
                   176 -1.604618275399870E-005
                   177  1.139700496968759E-006
                   178 -7.318097822587792E-007
                   179  1.863718201911238E-006
                   180 -4.110760778319549E-005
                   181  9.448063665003345E-007
                   182 -9.326504164105880E-005
                   183 -2.650076007632860E-004
                   184  2.940890799475131E-005
                   185  8.146261500854831E-005
                   186 -2.161364105416527E-005
                   187 -3.871580895575842E-005
                   188  3.956769025322593E-008
                   189  5.696454918184528E-005
                   190  1.796453647278707E-005
                   191 -1.937514152872906E-007
                   192 -2.056620327192909E-004
                   193 -7.706921496053587E-005
                   194 -5.029858643981779E-008
                   195 -1.280127315471995E-005
                   196  9.430630008132628E-009
                   197 -2.286048591117183E-011
                   198  7.661409931255968E-006
                   199 -1.540024214245530E-006
                   200 -1.064908963408480E-004
                   201  9.879819806126655E-008
                   202  1.150767056364349E-010
                   203  4.265337124881580E-005
                   204  1.233750830393539E-005
                   205  9.163110870821379E-009
                   206  1.766260701983929E-007
                   207  2.116645727131621E-006
                   208 -9.098498211157455E-009
                   209  6.090876706052458E-011
                   210 -5.422327309086579E-006
                   211 -1.492847831809229E-006
                   212  3.282133142359799E-003
                   213 -2.304368525345639E-003
                   214  2.551279055884109E-004
                   215  2.317304272843038E-004
                   216  4.061629038501768E-004
                   217  3.282132635169994E-003
                   218 -2.304369237166458E-003
                   219  2.551318599268771E-004
                   220  2.317302932151996E-004
                   221 -4.061644856031822E-004
                   222 -5.475997178656049E-004
                   223 -2.312404543559737E-004
                   224 -4.820886985721830E-005
                   225  5.440613621987625E-006
                   226  1.454435299239235E-005
                   227 -5.476189864971508E-004
                   228 -2.310976649125394E-004
                   229 -4.821610986669921E-005
                   230  5.440533601077964E-006
                   231 -1.454939595675804E-005
                   232 -1.544344556869591E-004
                   233 -4.539607463414814E-004
                   234  5.989947495050631E-006
                   235 -6.571639996788656E-007
                   236 -4.007628634206499E-006
                   237 -1.544629770717340E-004
                   238 -4.540073556256369E-004
                   239  6.011998531795584E-006
                   240 -6.570680684161593E-007
                   241  4.025838071448459E-006
                   242  5.031137884166543E-005
                   243  2.670186567048730E-005
                   244  1.991122862036185E-005
                   245  8.011571284286378E-007
                   246 -1.026163578079869E-008
 Sym= __2_A__
 Ene=  0.000000000000000E+000
 Spin= Alpha
 Occup=    2.00000000000000     
                     1 -3.203692516896260E-005
                     2 -1.566795847803994E-004
                     3  1.981530053619565E-003
                     4  4.623121983436005E-005
                     5  1.190012194505654E-003
                     6  2.309586117194968E-003
                     7  3.544522844844118E-004
                     8  3.212538311756855E-009
                     9 -6.766872021911943E-005
                    10  5.705320897606173E-005
                    11 -1.837600022800969E-009
                    12 -2.165734833095158E-004
                    13 -4.022917132550363E-006
                    14  2.594690893667477E-009
                    15 -7.442580154151137E-005
                    16  2.106888590101898E-010
                    17 -9.613960821891784E-011
                    18  2.289477445972424E-005
                    19 -4.906395833289835E-007
                    20  3.043127079742108E-004
                    21 -1.410231527889209E-009
                    22 -4.271628564572778E-010
                    23  2.165477078755694E-005
                    24 -2.267478876753521E-005
                    25 -3.128965387177350E-010
                    26  1.306966581394560E-004
                    27 -5.692616432316423E-005
                    28 -1.009222236723485E-009
                    29  1.555660015185463E-010
                    30  1.318749733916706E-004
                    31  2.940355279805138E-005
                    32   1.00106464631237     
                    33  8.868876773764276E-003
                    34  2.618000742768470E-003
                    35 -8.035318355780748E-003
                    36 -3.133850925140924E-003
                    37  6.148058351048921E-004
                    38 -3.358835825558554E-009
                    39  9.174331378038595E-004
                    40 -1.855243090460874E-004
                    41  2.313629484861433E-010
                    42  3.815474702089748E-003
                    43 -9.605793950078604E-005
                    44 -3.049228926608807E-008
                    45  2.328738957672933E-004
                    46 -1.293837300523990E-009
                    47  1.029236872390460E-010
                    48  4.658442670266930E-004
                    49 -2.622520025104812E-005
                    50 -1.293658820840149E-003
                    51  2.458562736242237E-009
                    52 -6.192222312175088E-010
                    53  6.696671006673888E-005
                    54  2.033444010597724E-005
                    55  1.261292422005046E-009
                    56  3.219583671869817E-004
                    57 -7.856568797894468E-006
                    58 -2.088125281126768E-010
                    59 -1.007133183824591E-010
                    60  1.236091707619992E-004
                    61  2.247308649218877E-005
                    62  9.974005067325395E-003
                    63 -1.911627870352070E-003
                    64 -2.984302205948891E-004
                    65  3.084410081839935E-003
                    66 -5.539277069637253E-005
                    67  1.066722015224611E-004
                    68  1.857973083278870E-004
                    69 -1.404224620803724E-004
                    70 -7.719223990223137E-006
                    71  6.262776137161800E-004
                    72  1.129725048041463E-005
                    73 -1.297470264192862E-005
                    74 -2.005633593015963E-003
                    75  3.026255640941841E-007
                    76  1.248233615000459E-005
                    77  7.618083413671980E-006
                    78 -3.146861096701026E-005
                    79 -5.435933596150798E-006
                    80 -4.103485913637232E-004
                    81 -5.697836798112684E-004
                    82 -3.920075745308826E-006
                    83  6.983736386740659E-004
                    84  1.308531744801674E-005
                    85  8.132408522740927E-005
                    86  1.148490923812383E-004
                    87  1.198620020636508E-006
                    88  6.433003210519716E-006
                    89 -6.193320604191634E-006
                    90 -2.265357616528502E-005
                    91  4.204606245888417E-006
                    92  9.973999262751042E-003
                    93 -1.911670862083156E-003
                    94 -2.984483250836310E-004
                    95  3.084494034028330E-003
                    96 -5.540342684671752E-005
                    97  1.066720382587311E-004
                    98 -1.857959367201965E-004
                    99 -1.403753530233670E-004
                   100 -7.718673980646046E-006
                   101 -6.262823287068947E-004
                   102  1.122767247022278E-005
                   103 -1.297470077659159E-005
                   104  2.005694114042236E-003
                   105  3.004464342025387E-007
                   106 -1.248495422084692E-005
                   107 -7.618131588783237E-006
                   108 -3.146341534377762E-005
                   109 -5.435884695437080E-006
                   110 -4.103673914378675E-004
                   111  5.698045611032452E-004
                   112  3.919780046198916E-006
                   113  6.983915202005110E-004
                   114  1.308512292777507E-005
                   115 -8.132370187325187E-005
                   116  1.148439914233798E-004
                   117  1.198673460868302E-006
                   118 -6.433161517132328E-006
                   119  6.193445565610602E-006
                   120 -2.265784513632196E-005
                   121  4.204670465309467E-006
                   122 -2.012569384076855E-004
                   123 -6.902111524624537E-004
                   124  2.267147902872150E-004
                   125 -1.304319878217269E-004
                   126 -2.182205530163620E-004
                   127  1.936631219374718E-005
                   128 -2.692518367214855E-005
                   129  4.912490614027614E-004
                   130 -4.357187802496655E-006
                   131  1.900672850095642E-005
                   132  6.471515741717670E-004
                   133  1.168622987286657E-006
                   134  3.333169661664490E-004
                   135 -2.808066417770470E-006
                   136  4.574596988033412E-005
                   137 -1.493968980546746E-007
                   138 -1.995313640808251E-005
                   139 -1.633477665668035E-006
                   140  1.639142617785648E-004
                   141 -2.774112919193198E-004
                   142  2.747003866062062E-006
                   143 -2.556869790475450E-004
                   144 -8.072493402545524E-007
                   145 -2.397810777773828E-005
                   146  1.642920651490464E-005
                   147  3.883191495111763E-007
                   148 -2.440547036869774E-005
                   149 -2.051044679258211E-006
                   150 -2.695828688620678E-005
                   151 -6.262577959058815E-007
                   152 -2.010925587131291E-004
                   153 -6.896607200253250E-004
                   154  2.267425789705575E-004
                   155 -1.309815015716617E-004
                   156 -2.182208602921596E-004
                   157  1.936630061088646E-005
                   158  2.691891845065166E-005
                   159  4.912606398815419E-004
                   160 -4.357117179051374E-006