[Molden Format]
[Atoms] AU
  N     1    7    -4.3947294300    0.0991612700    0.0000000000        
  C     2    6    -1.7793157100   -0.0302296300    0.0000000000        
  C     3    6    -0.4694062400   -0.0063844000   -2.3533798400        
  C     4    6    -0.4694062400   -0.0063844000    2.3533798400        
  C     5    6     2.2141403800    0.0044822200   -2.3290544300        
  C     6    6     2.2141403800    0.0044822200    2.3290544300        
  C     7    6     3.5082657500    0.0051058900    0.0000000000        
  H     8    1    -5.2456596200   -0.5260775200   -1.6043229900        
  H     9    1    -5.2456596200   -0.5260775200    1.6043229900        
  H    10    1    -1.5060850400    0.0139451200   -4.0904831700        
  H    11    1    -1.5060850400    0.0139451200    4.0904831700        
  H    12    1     3.2534251200    0.0120346000   -4.0656015100        
  H    13    1     3.2534251200    0.0120346000    4.0656015100        
  H    14    1     5.5374603900    0.0167086400    0.0000000000        
[5D]
[7F]
[GTO]
  1  0
   s    12 1.00
  0.114200D+05  0.172695D-04
  0.171200D+04  0.134411D-03
  0.389300D+03  0.694561D-03
  0.110000D+03  0.278531D-02
  0.355700D+02  0.863457D-02
  0.125400D+02  0.199805D-01
  0.464400D+01  0.262908D-01
  0.129300D+01 -0.243845D-01
  0.511800D+00 -0.924934D-01
  0.178700D+00 -0.339683D+00
  0.246240D-01  0.345111D+00
  0.112530D-01  0.752750D+00
   s    10 1.00
  0.114200D+05  0.523000D-03
  0.171200D+04  0.404500D-02
  0.389300D+03  0.207750D-01
  0.110000D+03  0.807269D-01
  0.355700D+02  0.233074D+00
  0.125400D+02  0.433501D+00
  0.464400D+01  0.347472D+00
  0.129300D+01  0.412620D-01
  0.511800D+00 -0.850799D-02
  0.178700D+00  0.238400D-02
   s    10 1.00
  0.114200D+05 -0.115000D-03
  0.171200D+04 -0.895000D-03
  0.389300D+03 -0.462400D-02
  0.110000D+03 -0.185280D-01
  0.355700D+02 -0.573390D-01
  0.125400D+02 -0.132076D+00
  0.464400D+01 -0.172510D+00
  0.129300D+01  0.151814D+00
  0.511800D+00  0.599944D+00
  0.178700D+00  0.387462D+00
   s     1 1.00
  0.129300D+01  0.100000D+01
   s     1 1.00
  0.178700D+00  0.100000D+01
   p     5 1.00
  0.266300D+02  0.146700D-01
  0.594800D+01  0.917640D-01
  0.174200D+01  0.298683D+00
  0.555000D+00  0.498487D+00
  0.172500D+00  0.337023D+00
   p     1 1.00
  0.174200D+01  0.100000D+01
   p     1 1.00
  0.555000D+00  0.100000D+01
   d     1 1.00
  0.165400D+01  0.100000D+01
   d     1 1.00
  0.469000D+00  0.100000D+01
   f     1 1.00
  0.109300D+01  0.100000D+01
  
  2  0
   s    10 1.00
  0.823600D+04  0.531000D-03
  0.123500D+04  0.410800D-02
  0.280800D+03  0.210870D-01
  0.792700D+02  0.818530D-01
  0.255900D+02  0.234817D+00
  0.899700D+01  0.434401D+00
  0.331900D+01  0.346129D+00
  0.905900D+00  0.393780D-01
  0.364300D+00 -0.898300D-02
  0.128500D+00  0.238500D-02
   s    10 1.00
  0.823600D+04 -0.113000D-03
  0.123500D+04 -0.878000D-03
  0.280800D+03 -0.454000D-02
  0.792700D+02 -0.181330D-01
  0.255900D+02 -0.557600D-01
  0.899700D+01 -0.126895D+00
  0.331900D+01 -0.170352D+00
  0.905900D+00  0.140382D+00
  0.364300D+00  0.598684D+00
  0.128500D+00  0.395389D+00
   s     1 1.00
  0.905900D+00  0.100000D+01
   s     1 1.00
  0.364300D+00  0.100000D+01
   p     5 1.00
  0.187100D+02  0.140310D-01
  0.413300D+01  0.868660D-01
  0.120000D+01  0.290216D+00
  0.382700D+00  0.501008D+00
  0.120900D+00  0.343406D+00
   p     1 1.00
  0.382700D+00  0.100000D+01
   p     1 1.00
  0.120900D+00  0.100000D+01
   d     1 1.00
  0.109700D+01  0.100000D+01
   d     1 1.00
  0.318000D+00  0.100000D+01
   f     1 1.00
  0.761000D+00  0.100000D+01
  
  3  0
   s    10 1.00
  0.823600D+04  0.531000D-03
  0.123500D+04  0.410800D-02
  0.280800D+03  0.210870D-01
  0.792700D+02  0.818530D-01
  0.255900D+02  0.234817D+00
  0.899700D+01  0.434401D+00
  0.331900D+01  0.346129D+00
  0.905900D+00  0.393780D-01
  0.364300D+00 -0.898300D-02
  0.128500D+00  0.238500D-02
   s    10 1.00
  0.823600D+04 -0.113000D-03
  0.123500D+04 -0.878000D-03
  0.280800D+03 -0.454000D-02
  0.792700D+02 -0.181330D-01
  0.255900D+02 -0.557600D-01
  0.899700D+01 -0.126895D+00
  0.331900D+01 -0.170352D+00
  0.905900D+00  0.140382D+00
  0.364300D+00  0.598684D+00
  0.128500D+00  0.395389D+00
   s     1 1.00
  0.905900D+00  0.100000D+01
   s     1 1.00
  0.364300D+00  0.100000D+01
   p     5 1.00
  0.187100D+02  0.140310D-01
  0.413300D+01  0.868660D-01
  0.120000D+01  0.290216D+00
  0.382700D+00  0.501008D+00
  0.120900D+00  0.343406D+00
   p     1 1.00
  0.382700D+00  0.100000D+01
   p     1 1.00
  0.120900D+00  0.100000D+01
   d     1 1.00
  0.109700D+01  0.100000D+01
   d     1 1.00
  0.318000D+00  0.100000D+01
   f     1 1.00
  0.761000D+00  0.100000D+01
  
  4  0
   s    10 1.00
  0.823600D+04  0.531000D-03
  0.123500D+04  0.410800D-02
  0.280800D+03  0.210870D-01
  0.792700D+02  0.818530D-01
  0.255900D+02  0.234817D+00
  0.899700D+01  0.434401D+00
  0.331900D+01  0.346129D+00
  0.905900D+00  0.393780D-01
  0.364300D+00 -0.898300D-02
  0.128500D+00  0.238500D-02
   s    10 1.00
  0.823600D+04 -0.113000D-03
  0.123500D+04 -0.878000D-03
  0.280800D+03 -0.454000D-02
  0.792700D+02 -0.181330D-01
  0.255900D+02 -0.557600D-01
  0.899700D+01 -0.126895D+00
  0.331900D+01 -0.170352D+00
  0.905900D+00  0.140382D+00
  0.364300D+00  0.598684D+00
  0.128500D+00  0.395389D+00
   s     1 1.00
  0.905900D+00  0.100000D+01
   s     1 1.00
  0.364300D+00  0.100000D+01
   p     5 1.00
  0.187100D+02  0.140310D-01
  0.413300D+01  0.868660D-01
  0.120000D+01  0.290216D+00
  0.382700D+00  0.501008D+00
  0.120900D+00  0.343406D+00
   p     1 1.00
  0.382700D+00  0.100000D+01
   p     1 1.00
  0.120900D+00  0.100000D+01
   d     1 1.00
  0.109700D+01  0.100000D+01
   d     1 1.00
  0.318000D+00  0.100000D+01
   f     1 1.00
  0.761000D+00  0.100000D+01
  
  5  0
   s    10 1.00
  0.823600D+04  0.531000D-03
  0.123500D+04  0.410800D-02
  0.280800D+03  0.210870D-01
  0.792700D+02  0.818530D-01
  0.255900D+02  0.234817D+00
  0.899700D+01  0.434401D+00
  0.331900D+01  0.346129D+00
  0.905900D+00  0.393780D-01
  0.364300D+00 -0.898300D-02
  0.128500D+00  0.238500D-02
   s    10 1.00
  0.823600D+04 -0.113000D-03
  0.123500D+04 -0.878000D-03
  0.280800D+03 -0.454000D-02
  0.792700D+02 -0.181330D-01
  0.255900D+02 -0.557600D-01
  0.899700D+01 -0.126895D+00
  0.331900D+01 -0.170352D+00
  0.905900D+00  0.140382D+00
  0.364300D+00  0.598684D+00
  0.128500D+00  0.395389D+00
   s     1 1.00
  0.905900D+00  0.100000D+01
   s     1 1.00
  0.364300D+00  0.100000D+01
   p     5 1.00
  0.187100D+02  0.140310D-01
  0.413300D+01  0.868660D-01
  0.120000D+01  0.290216D+00
  0.382700D+00  0.501008D+00
  0.120900D+00  0.343406D+00
   p     1 1.00
  0.382700D+00  0.100000D+01
   p     1 1.00
  0.120900D+00  0.100000D+01
   d     1 1.00
  0.109700D+01  0.100000D+01
   d     1 1.00
  0.318000D+00  0.100000D+01
   f     1 1.00
  0.761000D+00  0.100000D+01
  
  6  0
   s    10 1.00
  0.823600D+04  0.531000D-03
  0.123500D+04  0.410800D-02
  0.280800D+03  0.210870D-01
  0.792700D+02  0.818530D-01
  0.255900D+02  0.234817D+00
  0.899700D+01  0.434401D+00
  0.331900D+01  0.346129D+00
  0.905900D+00  0.393780D-01
  0.364300D+00 -0.898300D-02
  0.128500D+00  0.238500D-02
   s    10 1.00
  0.823600D+04 -0.113000D-03
  0.123500D+04 -0.878000D-03
  0.280800D+03 -0.454000D-02
  0.792700D+02 -0.181330D-01
  0.255900D+02 -0.557600D-01
  0.899700D+01 -0.126895D+00
  0.331900D+01 -0.170352D+00
  0.905900D+00  0.140382D+00
  0.364300D+00  0.598684D+00
  0.128500D+00  0.395389D+00
   s     1 1.00
  0.905900D+00  0.100000D+01
   s     1 1.00
  0.364300D+00  0.100000D+01
   p     5 1.00
  0.187100D+02  0.140310D-01
  0.413300D+01  0.868660D-01
  0.120000D+01  0.290216D+00
  0.382700D+00  0.501008D+00
  0.120900D+00  0.343406D+00
   p     1 1.00
  0.382700D+00  0.100000D+01
   p     1 1.00
  0.120900D+00  0.100000D+01
   d     1 1.00
  0.109700D+01  0.100000D+01
   d     1 1.00
  0.318000D+00  0.100000D+01
   f     1 1.00
  0.761000D+00  0.100000D+01
  
  7  0
   s    10 1.00
  0.823600D+04  0.531000D-03
  0.123500D+04  0.410800D-02
  0.280800D+03  0.210870D-01
  0.792700D+02  0.818530D-01
  0.255900D+02  0.234817D+00
  0.899700D+01  0.434401D+00
  0.331900D+01  0.346129D+00
  0.905900D+00  0.393780D-01
  0.364300D+00 -0.898300D-02
  0.128500D+00  0.238500D-02
   s    10 1.00
  0.823600D+04 -0.113000D-03
  0.123500D+04 -0.878000D-03
  0.280800D+03 -0.454000D-02
  0.792700D+02 -0.181330D-01
  0.255900D+02 -0.557600D-01
  0.899700D+01 -0.126895D+00
  0.331900D+01 -0.170352D+00
  0.905900D+00  0.140382D+00
  0.364300D+00  0.598684D+00
  0.128500D+00  0.395389D+00
   s     1 1.00
  0.905900D+00  0.100000D+01
   s     1 1.00
  0.364300D+00  0.100000D+01
   p     5 1.00
  0.187100D+02  0.140310D-01
  0.413300D+01  0.868660D-01
  0.120000D+01  0.290216D+00
  0.382700D+00  0.501008D+00
  0.120900D+00  0.343406D+00
   p     1 1.00
  0.382700D+00  0.100000D+01
   p     1 1.00
  0.120900D+00  0.100000D+01
   d     1 1.00
  0.109700D+01  0.100000D+01
   d     1 1.00
  0.318000D+00  0.100000D+01
   f     1 1.00
  0.761000D+00  0.100000D+01
  
  8  0
   s     4 1.00
  0.130100D+02  0.196850D-01
  0.196200D+01  0.137977D+00
  0.444600D+00  0.478148D+00
  0.122000D+00  0.501240D+00
   s     1 1.00
  0.122000D+00  0.100000D+01
   p     1 1.00
  0.727000D+00  0.100000D+01
  
  9  0
   s     4 1.00
  0.130100D+02  0.196850D-01
  0.196200D+01  0.137977D+00
  0.444600D+00  0.478148D+00
  0.122000D+00  0.501240D+00
   s     1 1.00
  0.122000D+00  0.100000D+01
   p     1 1.00
  0.727000D+00  0.100000D+01
  
 10  0
   s     4 1.00
  0.130100D+02  0.196850D-01
  0.196200D+01  0.137977D+00
  0.444600D+00  0.478148D+00
  0.122000D+00  0.501240D+00
   s     1 1.00
  0.122000D+00  0.100000D+01
   p     1 1.00
  0.727000D+00  0.100000D+01
  
 11  0
   s     4 1.00
  0.130100D+02  0.196850D-01
  0.196200D+01  0.137977D+00
  0.444600D+00  0.478148D+00
  0.122000D+00  0.501240D+00
   s     1 1.00
  0.122000D+00  0.100000D+01
   p     1 1.00
  0.727000D+00  0.100000D+01
  
 12  0
   s     4 1.00
  0.130100D+02  0.196850D-01
  0.196200D+01  0.137977D+00
  0.444600D+00  0.478148D+00
  0.122000D+00  0.501240D+00
   s     1 1.00
  0.122000D+00  0.100000D+01
   p     1 1.00
  0.727000D+00  0.100000D+01
  
 13  0
   s     4 1.00
  0.130100D+02  0.196850D-01
  0.196200D+01  0.137977D+00
  0.444600D+00  0.478148D+00
  0.122000D+00  0.501240D+00
   s     1 1.00
  0.122000D+00  0.100000D+01
   p     1 1.00
  0.727000D+00  0.100000D+01
  
 14  0
   s     4 1.00
  0.130100D+02  0.196850D-01
  0.196200D+01  0.137977D+00
  0.444600D+00  0.478148D+00
  0.122000D+00  0.501240D+00
   s     1 1.00
  0.122000D+00  0.100000D+01
   p     1 1.00
  0.727000D+00  0.100000D+01
  
[MO]
 Sym= __1_A__
 Ene=  0.000000000000000E+000
 Spin= Alpha
 Occup=    2.00000000000000     
                     1  1.480505533609290E-004
                     2  0.998067988895476     
                     3  6.168240616616743E-003
                     4  1.998566883065218E-003
                     5  3.818618828420038E-003
                     6  4.720742685915217E-003
                     7 -3.261711008786813E-003
                     8 -6.056023795404217E-009
                     9 -4.531438719372425E-004
                    10  7.639684489436997E-005
                    11  2.775465966838269E-009
                    12 -7.191247148826986E-004
                    13  2.188634482158363E-003
                    14 -8.982545488259335E-009
                    15 -4.102922793107384E-006
                    16 -4.106988759922153E-010
                    17  7.382829850509846E-011
                    18  1.575650586163277E-004
                    19  5.654165067794508E-005
                    20 -4.362832493168022E-004
                    21 -3.444947741315438E-010
                    22  1.665294639611872E-009
                    23 -3.887142974425482E-005
                    24 -3.979624292336341E-004
                    25  3.793506072252797E-009
                    26 -1.725767181662278E-004
                    27 -5.486939201881777E-005
                    28  6.243545865336814E-009
                    29 -8.185991736020864E-010
                    30 -9.332496978140513E-005
                    31 -6.130954171791570E-005
                    32 -3.755768417141649E-004
                    33  1.496605618237967E-003
                    34  1.785685754241065E-004
                    35 -8.115731272110174E-005
                    36 -5.389579583577787E-003
                    37  7.468580829724316E-005
                    38  5.007052159632608E-009
                    39  2.027389574654399E-004
                    40  7.072533733158094E-006
                    41 -7.604620530132764E-009
                    42  4.553106617097827E-003
                    43  6.415740748957173E-004
                    44  7.183779699917505E-008
                    45 -2.557075699489581E-004
                    46  3.629133606955259E-009
                    47 -9.671498544971614E-011
                    48  2.178400152570884E-004
                    49  3.376525585747007E-005
                    50  3.880175994270944E-004
                    51 -3.042582030327904E-008
                    52  5.400702548460327E-010
                    53  1.153438640623036E-004
                    54 -2.882178205402364E-004
                    55 -6.132056656116015E-009
                    56 -9.368047471519648E-005
                    57  1.230205240914597E-005
                    58 -3.297422012262290E-009
                    59  2.351977263101497E-010
                    60 -4.265534788740564E-005
                    61  3.758381564269776E-005
                    62 -2.944665699079577E-004
                    63 -1.750295878881732E-003
                    64  8.197050615049898E-005
                    65  6.812833518648850E-004
                    66  7.223130623305751E-004
                    67 -2.439655720760596E-005
                    68 -7.023838371765116E-004
                    69  5.887458406751580E-004
                    70  5.271590730393243E-005
                    71  1.433767228450618E-005
                    72 -3.607605734073223E-004
                    73 -2.641695565006868E-004
                    74 -6.763560164102341E-004
                    75 -7.193727833061409E-005
                    76 -1.170738750335650E-005
                    77  1.627913486906137E-005
                    78  5.342753544181706E-005
                    79 -4.862174213488270E-006
                    80  9.478643198402770E-005
                    81  1.923734817407397E-004
                    82 -2.768076772192165E-005
                    83 -5.899086027381408E-005
                    84  2.792695714889933E-005
                    85 -1.374126880446067E-005
                    86 -5.894328714295162E-005
                    87  1.599947115602221E-005
                    88 -2.249202054648690E-005
                    89  1.144130744379511E-005
                    90 -4.886544213166758E-005
                    91 -7.897626526353212E-006
                    92 -2.944533848304824E-004
                    93 -1.750243454133720E-003
                    94  8.202000047962161E-005
                    95  6.811385750645222E-004
                    96  7.223455741718859E-004
                    97 -2.439633191237997E-005
                    98  7.023865778441470E-004
                    99  5.885940604295257E-004
                   100  5.271464244076868E-005
                   101 -1.436258934626644E-005
                   102 -3.606024687395186E-004
                   103 -2.641700776160773E-004
                   104  6.761900258328652E-004
                   105 -7.193361367121141E-005
                   106  1.171243902317915E-005
                   107 -1.627900232845443E-005
                   108  5.342030991042454E-005
                   109 -4.862158331544233E-006
                   110  9.486855192543823E-005
                   111 -1.924203795919306E-004
                   112  2.768104748422984E-005
                   113 -5.909071543039120E-005
                   114  2.792586995282153E-005
                   115  1.374478819753266E-005
                   116 -5.892680268568653E-005
                   117  1.599940051156104E-005
                   118  2.249419768563556E-005
                   119 -1.144134928661603E-005
                   120 -4.884866859512626E-005
                   121 -7.897891305600697E-006
                   122 -1.403226218114293E-004
                   123 -7.904726072437628E-005
                   124  6.259642045543716E-005
                   125  3.519503672092046E-004
                   126 -6.549724235540850E-004
                   127 -2.513061978963770E-005
                   128  2.749889155049210E-005
                   129  2.381988963440324E-004
                   130 -7.590184214352253E-006
                   131  2.742796086094141E-005
                   132  7.534012171261347E-004
                   133  1.068699425410545E-004
                   134 -2.695297919824371E-004
                   135  3.521707939609909E-006
                   136 -9.774838030821207E-007
                   137 -2.654346967412944E-006
                   138 -1.058578164609332E-006
                   139  6.320358060417258E-006
                   140  7.126920896309892E-005
                   141  1.898119688698728E-004
                   142  6.683550960146774E-006
                   143 -1.720392948662895E-004
                   144 -1.934178258403983E-005
                   145 -5.753795739214055E-006
                   146 -1.608327341419937E-005
                   147  1.139603645436424E-006
                   148  7.294294786515152E-007
                   149 -1.863651128988738E-006
                   150 -4.111830205823947E-005
                   151  9.448700497126901E-007
                   152 -1.405417090184077E-004
                   153 -7.981787511635988E-005
                   154  6.241653788294856E-005
                   155  3.531561796882764E-004
                   156 -6.549697739662451E-004
                   157 -2.513050001131117E-005
                   158 -2.746921440092485E-005
                   159  2.381506297229918E-004
                   160 -7.590531725161183E-006
                   161 -2.760092512253789E-005
                   162  7.535404055535867E-004
                   163  1.068709856748176E-004
                   164  2.696837889510731E-004
                   165  3.531641376059869E-006
                   166  9.741789981658899E-007
                   167  2.653957989723962E-006
                   168 -1.034247536243380E-006
                   169  6.320413706154926E-006
                   170  7.129436098194946E-005
                   171 -1.899113871435313E-004
                   172 -6.683509754814941E-006
                   173 -1.720126021122667E-004
                   174 -1.934189506259149E-005
                   175  5.757459245028903E-006
                   176 -1.604618275397304E-005
                   177  1.139700496968731E-006
                   178 -7.318097822367588E-007
                   179  1.863718201911158E-006
                   180 -4.110760778315641E-005
                   181  9.448063664999617E-007
                   182 -9.326504164092492E-005
                   183 -2.650076007627108E-004
                   184  2.940890799470718E-005
                   185  8.146261500834816E-005
                   186 -2.161364105411312E-005
                   187 -3.871580895574181E-005
                   188  3.956769009152332E-008
                   189  5.696454918181787E-005
                   190  1.796453647278834E-005
                   191 -1.937514153424434E-007
                   192 -2.056620327191446E-004
                   193 -7.706921496053303E-005
                   194 -5.029858649917203E-008
                   195 -1.280127315475164E-005
                   196  9.430630003130365E-009
                   197 -2.286048606998329E-011
                   198  7.661409931274584E-006
                   199 -1.540024214245521E-006
                   200 -1.064908963407980E-004
                   201  9.879819803699075E-008
                   202  1.150767059338108E-010
                   203  4.265337124874566E-005
                   204  1.233750830393489E-005
                   205  9.163110879728840E-009
                   206  1.766260702015257E-007
                   207  2.116645727131795E-006
                   208 -9.098498207293030E-009
                   209  6.090876713969036E-011
                   210 -5.422327309086283E-006
                   211 -1.492847831809196E-006
                   212  3.282133142359504E-003
                   213 -2.304368525345854E-003
                   214  2.551279055884156E-004
                   215  2.317304272842920E-004
                   216  4.061629038501668E-004
                   217  3.282132635169905E-003
                   218 -2.304369237166528E-003
                   219  2.551318599268662E-004
                   220  2.317302932151811E-004
                   221 -4.061644856031616E-004
                   222 -5.475997178638277E-004
                   223 -2.312404543559485E-004
                   224 -4.820886985714279E-005
                   225  5.440613621984920E-006
                   226  1.454435299247172E-005
                   227 -5.476189864977783E-004
                   228 -2.310976649114287E-004
                   229 -4.821610986666302E-005
                   230  5.440533601077421E-006
                   231 -1.454939595665924E-005
                   232 -1.544344556884642E-004
                   233 -4.539607463404922E-004
                   234  5.989947495079139E-006
                   235 -6.571639996789715E-007
                   236 -4.007628634273662E-006
                   237 -1.544629770728566E-004
                   238 -4.540073556249574E-004
                   239  6.011998531782487E-006
                   240 -6.570680684160986E-007
                   241  4.025838071497997E-006
                   242  5.031137884205119E-005
                   243  2.670186567066948E-005
                   244  1.991122862033121E-005
                   245  8.011571284287883E-007
                   246 -1.026163578393267E-008
 Sym= __2_A__
 Ene=  0.000000000000000E+000
 Spin= Alpha
 Occup=    2.00000000000000     
                     1 -3.203692516553618E-005
                     2 -1.566795847784313E-004
                     3  1.981530053608108E-003
                     4  4.623121983328299E-005
                     5  1.190012194533702E-003
                     6  2.309586117194877E-003
                     7  3.544522844794560E-004
                     8  3.212538120179593E-009
                     9 -6.766872022308994E-005
                    10  5.705320897716095E-005
                    11 -1.837598014338143E-009
                    12 -2.165734833076624E-004
                    13 -4.022917131107105E-006
                    14  2.594684240500212E-009
                    15 -7.442580154172410E-005
                    16  2.106899576548944E-010
                    17 -9.613943751958828E-011
                    18  2.289477445916700E-005
                    19 -4.906395833730238E-007
                    20  3.043127079790090E-004
                    21 -1.410235338134138E-009
                    22 -4.271628501695788E-010
                    23  2.165477078802314E-005
                    24 -2.267478876727714E-005
                    25 -3.128975136335104E-010
                    26  1.306966581411839E-004
                    27 -5.692616432313736E-005
                    28 -1.009222813169549E-009
                    29  1.555660601098444E-010
                    30  1.318749733914963E-004
                    31  2.940355279800709E-005
                    32   1.00106464631298     
                    33  8.868876773606659E-003
                    34  2.618000742794587E-003
                    35 -8.035318355927617E-003
                    36 -3.133850925240464E-003
                    37  6.148058351017522E-004
                    38 -3.358700659646818E-009
                    39  9.174331377803528E-004
                    40 -1.855243090464275E-004
                    41  2.313802504979672E-010
                    42  3.815474702112189E-003
                    43 -9.605793950155714E-005
                    44 -3.049235366451153E-008
                    45  2.328738957635186E-004
                    46 -1.293831574750363E-009
                    47  1.029237165431255E-010
                    48  4.658442670271888E-004
                    49 -2.622520025114943E-005
                    50 -1.293658820883764E-003
                    51  2.458556256749909E-009
                    52 -6.192212745474892E-010
                    53  6.696671005262069E-005
                    54  2.033444010584498E-005
                    55  1.261294185385686E-009
                    56  3.219583671896899E-004
                    57 -7.856568797973766E-006
                    58 -2.088128968386568E-010
                    59 -1.007136336001125E-010
                    60  1.236091707625948E-004
                    61  2.247308649188668E-005
                    62  9.974005022804070E-003
                    63 -1.911627870813582E-003
                    64 -2.984302207252195E-004
                    65  3.084410082218157E-003
                    66 -5.539277060007103E-005
                    67  1.066722015249905E-004
                    68  1.857973081298641E-004
                    69 -1.404224620837989E-004
                    70 -7.719223991859586E-006
                    71  6.262776137818197E-004
                    72  1.129725043752047E-005
                    73 -1.297470264238588E-005
                    74 -2.005633592987049E-003
                    75  3.026255532995516E-007
                    76  1.248233615670627E-005
                    77  7.618083413907082E-006
                    78 -3.146861098265290E-005
                    79 -5.435933596219892E-006
                    80 -4.103485913721448E-004
                    81 -5.697836798422821E-004
                    82 -3.920075745222185E-006
                    83  6.983736386993492E-004
                    84  1.308531744820955E-005
                    85  8.132408522567401E-005
                    86  1.148490923951807E-004
                    87  1.198620020508950E-006
                    88  6.433003213944738E-006
                    89 -6.193320604425909E-006
                    90 -2.265357616437578E-005
                    91  4.204606245781354E-006
                    92  9.973999253297497E-003
                    93 -1.911670862148128E-003
                    94 -2.984483251205595E-004
                    95  3.084494034114511E-003
                    96 -5.540342683049633E-005
                    97  1.066720382583301E-004
                    98 -1.857959366794925E-004
                    99 -1.403753530394987E-004
                   100 -7.718673981687808E-006
                   101 -6.262823287415040E-004
                   102  1.122767244298562E-005
                   103 -1.297470077693684E-005
                   104  2.005694113998957E-003
                   105  3.004464320035674E-007
                   106 -1.248495422097625E-005
                   107 -7.618131588809698E-006
                   108 -3.146341534648284E-005
                   109 -5.435884695480889E-006
                   110 -4.103673914366298E-004
                   111  5.698045611157484E-004
                   112  3.919780046512999E-006
                   113  6.983915202074972E-004
                   114  1.308512292843604E-005
                   115 -8.132370187205751E-005
                   116  1.148439914279435E-004
                   117  1.198673460814144E-006
                   118 -6.433161518926654E-006
                   119  6.193445565589647E-006
                   120 -2.265784513486159E-005
                   121  4.204670465204421E-006
                   122 -2.012569387978440E-004
                   123 -6.902111523598312E-004
                   124  2.267147902996618E-004
                   125 -1.304319879510616E-004
                   126 -2.182205530269369E-004
                   127  1.936631219344018E-005
                   128 -2.692518365568833E-005
                   129  4.912490614311896E-004
                   130 -4.357187802303559E-006
                   131  1.900672848411702E-005
                   132  6.471515741070365E-004
                   133  1.168622986838631E-006
                   134  3.333169661910218E-004
                   135 -2.808066416817607E-006
                   136  4.574596988389443E-005
                   137 -1.493968980530080E-007
                   138 -1.995313640690837E-005
                   139 -1.633477665663352E-006
                   140  1.639142617742665E-004
                   141 -2.774112919395594E-004
                   142  2.747003866020820E-006
                   143 -2.556869790640760E-004
                   144 -8.072493404086672E-007
                   145 -2.397810777799590E-005
                   146  1.642920651935205E-005
                   147  3.883191495337325E-007
                   148 -2.440547037110426E-005
                   149 -2.051044679295232E-006
                   150 -2.695828688123565E-005
                   151 -6.262577959376367E-007
                   152 -2.010925587825623E-004
                   153 -6.896607199589801E-004
                   154  2.267425789730830E-004
                   155 -1.309815016374186E-004
                   156 -2.182208602960433E-004
                   157  1.936630061060169E-005
                   158  2.691891844525449E-005
                   159  4.912606398813194E-004
                   160 -4.357117179142755E-006